<UPF version="2.0.1">
  <PP_INFO>

 This pseudopotential file has been produced using the code
 ONCVPSP  (Optimized Norm-Conservinng Vanderbilt PSeudopotential)
 scalar-relativistic version 3.3.1 12/12/2017 by D. R. Hamann
 The code is available through a link at URL www.mat-simresearch.com.
 Documentation with the package provides a full discription of the
 input data below.


 While it is not required under the terms of the GNU GPL, it is
 suggested that you cite D. R. Hamann, Phys. Rev. B 88, 085117 (2013)
 in any publication using these pseudopotentials.

    <PP_INPUTFILE>
# ATOM AND REFERENCE CONFIGURATION
# atsym  z   nc   nv     iexc    psfile
  Ar 18.00    3    2       3      upf
#
#   n    l    f        energy (Ha)
    1    0    2.00
    2    0    2.00
    2    1    6.00
    3    0    2.00
    3    1    6.00
#
# PSEUDOPOTENTIAL AND OPTIMIZATION
# lmax
    1
#
#   l,   rc,      ep,       ncon, nbas, qcut
    0   2.64980  -0.88325    5    8   7.97831
    1   1.77414  -0.38230    5    8   7.45116
#
# LOCAL POTENTIAL
# lloc, lpopt,  rc(5),   dvloc0
    4    5   1.40453      0.00000
#
# VANDERBILT-KLEINMAN-BYLANDER PROJECTORs
# l, nproj, debl
    0    2   0.87367
    1    2   3.20739
#
# MODEL CORE CHARGE
# icmod, fcfact, rcfact
    0   0.00000   0.00000
#
# LOG DERIVATIVE ANALYSIS
# epsh1, epsh2, depsh
   -5.00    3.00    0.02
#
# OUTPUT GRID
# rlmax, drl
    6.00    0.01
#
# TEST CONFIGURATIONS
# ncnf
    0
# nvcnf
#   n    l    f
    </PP_INPUTFILE>
  </PP_INFO>
  <!--                               -->
  <!-- END OF HUMAN READABLE SECTION -->
  <!--                               -->
    <PP_HEADER
       generated="Generated using ONCVPSP code by D. R. Hamann"
       author="anonymous"
       date="220413"
       comment=""
       element="Ar"
       pseudo_type="NC"
       relativistic="scalar"
       is_ultrasoft="F"
       is_paw="F"
       is_coulomb="F"
       has_so="F"
       has_wfc="F"
       has_gipaw="F"
       core_correction="F"
       functional="PZ"
       z_valence="    8.00"
       total_psenergy="  -4.21246090758E+01"
       rho_cutoff="   9.25000000000E+00"
       l_max="1"
       l_local="-1"
       mesh_size="   926"
       number_of_wfc="2"
       number_of_proj="4"/>
 <PP_MESH>
   <PP_R type="real"  size=" 926" columns="8">
    0.0000    0.0100    0.0200    0.0300    0.0400    0.0500    0.0600    0.0700
    0.0800    0.0900    0.1000    0.1100    0.1200    0.1300    0.1400    0.1500
    0.1600    0.1700    0.1800    0.1900    0.2000    0.2100    0.2200    0.2300
    0.2400    0.2500    0.2600    0.2700    0.2800    0.2900    0.3000    0.3100
    0.3200    0.3300    0.3400    0.3500    0.3600    0.3700    0.3800    0.3900
    0.4000    0.4100    0.4200    0.4300    0.4400    0.4500    0.4600    0.4700
    0.4800    0.4900    0.5000    0.5100    0.5200    0.5300    0.5400    0.5500
    0.5600    0.5700    0.5800    0.5900    0.6000    0.6100    0.6200    0.6300
    0.6400    0.6500    0.6600    0.6700    0.6800    0.6900    0.7000    0.7100
    0.7200    0.7300    0.7400    0.7500    0.7600    0.7700    0.7800    0.7900
    0.8000    0.8100    0.8200    0.8300    0.8400    0.8500    0.8600    0.8700
    0.8800    0.8900    0.9000    0.9100    0.9200    0.9300    0.9400    0.9500
    0.9600    0.9700    0.9800    0.9900    1.0000    1.0100    1.0200    1.0300
    1.0400    1.0500    1.0600    1.0700    1.0800    1.0900    1.1000    1.1100
    1.1200    1.1300    1.1400    1.1500    1.1600    1.1700    1.1800    1.1900
    1.2000    1.2100    1.2200    1.2300    1.2400    1.2500    1.2600    1.2700
    1.2800    1.2900    1.3000    1.3100    1.3200    1.3300    1.3400    1.3500
    1.3600    1.3700    1.3800    1.3900    1.4000    1.4100    1.4200    1.4300
    1.4400    1.4500    1.4600    1.4700    1.4800    1.4900    1.5000    1.5100
    1.5200    1.5300    1.5400    1.5500    1.5600    1.5700    1.5800    1.5900
    1.6000    1.6100    1.6200    1.6300    1.6400    1.6500    1.6600    1.6700
    1.6800    1.6900    1.7000    1.7100    1.7200    1.7300    1.7400    1.7500
    1.7600    1.7700    1.7800    1.7900    1.8000    1.8100    1.8200    1.8300
    1.8400    1.8500    1.8600    1.8700    1.8800    1.8900    1.9000    1.9100
    1.9200    1.9300    1.9400    1.9500    1.9600    1.9700    1.9800    1.9900
    2.0000    2.0100    2.0200    2.0300    2.0400    2.0500    2.0600    2.0700
    2.0800    2.0900    2.1000    2.1100    2.1200    2.1300    2.1400    2.1500
    2.1600    2.1700    2.1800    2.1900    2.2000    2.2100    2.2200    2.2300
    2.2400    2.2500    2.2600    2.2700    2.2800    2.2900    2.3000    2.3100
    2.3200    2.3300    2.3400    2.3500    2.3600    2.3700    2.3800    2.3900
    2.4000    2.4100    2.4200    2.4300    2.4400    2.4500    2.4600    2.4700
    2.4800    2.4900    2.5000    2.5100    2.5200    2.5300    2.5400    2.5500
    2.5600    2.5700    2.5800    2.5900    2.6000    2.6100    2.6200    2.6300
    2.6400    2.6500    2.6600    2.6700    2.6800    2.6900    2.7000    2.7100
    2.7200    2.7300    2.7400    2.7500    2.7600    2.7700    2.7800    2.7900
    2.8000    2.8100    2.8200    2.8300    2.8400    2.8500    2.8600    2.8700
    2.8800    2.8900    2.9000    2.9100    2.9200    2.9300    2.9400    2.9500
    2.9600    2.9700    2.9800    2.9900    3.0000    3.0100    3.0200    3.0300
    3.0400    3.0500    3.0600    3.0700    3.0800    3.0900    3.1000    3.1100
    3.1200    3.1300    3.1400    3.1500    3.1600    3.1700    3.1800    3.1900
    3.2000    3.2100    3.2200    3.2300    3.2400    3.2500    3.2600    3.2700
    3.2800    3.2900    3.3000    3.3100    3.3200    3.3300    3.3400    3.3500
    3.3600    3.3700    3.3800    3.3900    3.4000    3.4100    3.4200    3.4300
    3.4400    3.4500    3.4600    3.4700    3.4800    3.4900    3.5000    3.5100
    3.5200    3.5300    3.5400    3.5500    3.5600    3.5700    3.5800    3.5900
    3.6000    3.6100    3.6200    3.6300    3.6400    3.6500    3.6600    3.6700
    3.6800    3.6900    3.7000    3.7100    3.7200    3.7300    3.7400    3.7500
    3.7600    3.7700    3.7800    3.7900    3.8000    3.8100    3.8200    3.8300
    3.8400    3.8500    3.8600    3.8700    3.8800    3.8900    3.9000    3.9100
    3.9200    3.9300    3.9400    3.9500    3.9600    3.9700    3.9800    3.9900
    4.0000    4.0100    4.0200    4.0300    4.0400    4.0500    4.0600    4.0700
    4.0800    4.0900    4.1000    4.1100    4.1200    4.1300    4.1400    4.1500
    4.1600    4.1700    4.1800    4.1900    4.2000    4.2100    4.2200    4.2300
    4.2400    4.2500    4.2600    4.2700    4.2800    4.2900    4.3000    4.3100
    4.3200    4.3300    4.3400    4.3500    4.3600    4.3700    4.3800    4.3900
    4.4000    4.4100    4.4200    4.4300    4.4400    4.4500    4.4600    4.4700
    4.4800    4.4900    4.5000    4.5100    4.5200    4.5300    4.5400    4.5500
    4.5600    4.5700    4.5800    4.5900    4.6000    4.6100    4.6200    4.6300
    4.6400    4.6500    4.6600    4.6700    4.6800    4.6900    4.7000    4.7100
    4.7200    4.7300    4.7400    4.7500    4.7600    4.7700    4.7800    4.7900
    4.8000    4.8100    4.8200    4.8300    4.8400    4.8500    4.8600    4.8700
    4.8800    4.8900    4.9000    4.9100    4.9200    4.9300    4.9400    4.9500
    4.9600    4.9700    4.9800    4.9900    5.0000    5.0100    5.0200    5.0300
    5.0400    5.0500    5.0600    5.0700    5.0800    5.0900    5.1000    5.1100
    5.1200    5.1300    5.1400    5.1500    5.1600    5.1700    5.1800    5.1900
    5.2000    5.2100    5.2200    5.2300    5.2400    5.2500    5.2600    5.2700
    5.2800    5.2900    5.3000    5.3100    5.3200    5.3300    5.3400    5.3500
    5.3600    5.3700    5.3800    5.3900    5.4000    5.4100    5.4200    5.4300
    5.4400    5.4500    5.4600    5.4700    5.4800    5.4900    5.5000    5.5100
    5.5200    5.5300    5.5400    5.5500    5.5600    5.5700    5.5800    5.5900
    5.6000    5.6100    5.6200    5.6300    5.6400    5.6500    5.6600    5.6700
    5.6800    5.6900    5.7000    5.7100    5.7200    5.7300    5.7400    5.7500
    5.7600    5.7700    5.7800    5.7900    5.8000    5.8100    5.8200    5.8300
    5.8400    5.8500    5.8600    5.8700    5.8800    5.8900    5.9000    5.9100
    5.9200    5.9300    5.9400    5.9500    5.9600    5.9700    5.9800    5.9900
    6.0000    6.0100    6.0200    6.0300    6.0400    6.0500    6.0600    6.0700
    6.0800    6.0900    6.1000    6.1100    6.1200    6.1300    6.1400    6.1500
    6.1600    6.1700    6.1800    6.1900    6.2000    6.2100    6.2200    6.2300
    6.2400    6.2500    6.2600    6.2700    6.2800    6.2900    6.3000    6.3100
    6.3200    6.3300    6.3400    6.3500    6.3600    6.3700    6.3800    6.3900
    6.4000    6.4100    6.4200    6.4300    6.4400    6.4500    6.4600    6.4700
    6.4800    6.4900    6.5000    6.5100    6.5200    6.5300    6.5400    6.5500
    6.5600    6.5700    6.5800    6.5900    6.6000    6.6100    6.6200    6.6300
    6.6400    6.6500    6.6600    6.6700    6.6800    6.6900    6.7000    6.7100
    6.7200    6.7300    6.7400    6.7500    6.7600    6.7700    6.7800    6.7900
    6.8000    6.8100    6.8200    6.8300    6.8400    6.8500    6.8600    6.8700
    6.8800    6.8900    6.9000    6.9100    6.9200    6.9300    6.9400    6.9500
    6.9600    6.9700    6.9800    6.9900    7.0000    7.0100    7.0200    7.0300
    7.0400    7.0500    7.0600    7.0700    7.0800    7.0900    7.1000    7.1100
    7.1200    7.1300    7.1400    7.1500    7.1600    7.1700    7.1800    7.1900
    7.2000    7.2100    7.2200    7.2300    7.2400    7.2500    7.2600    7.2700
    7.2800    7.2900    7.3000    7.3100    7.3200    7.3300    7.3400    7.3500
    7.3600    7.3700    7.3800    7.3900    7.4000    7.4100    7.4200    7.4300
    7.4400    7.4500    7.4600    7.4700    7.4800    7.4900    7.5000    7.5100
    7.5200    7.5300    7.5400    7.5500    7.5600    7.5700    7.5800    7.5900
    7.6000    7.6100    7.6200    7.6300    7.6400    7.6500    7.6600    7.6700
    7.6800    7.6900    7.7000    7.7100    7.7200    7.7300    7.7400    7.7500
    7.7600    7.7700    7.7800    7.7900    7.8000    7.8100    7.8200    7.8300
    7.8400    7.8500    7.8600    7.8700    7.8800    7.8900    7.9000    7.9100
    7.9200    7.9300    7.9400    7.9500    7.9600    7.9700    7.9800    7.9900
    8.0000    8.0100    8.0200    8.0300    8.0400    8.0500    8.0600    8.0700
    8.0800    8.0900    8.1000    8.1100    8.1200    8.1300    8.1400    8.1500
    8.1600    8.1700    8.1800    8.1900    8.2000    8.2100    8.2200    8.2300
    8.2400    8.2500    8.2600    8.2700    8.2800    8.2900    8.3000    8.3100
    8.3200    8.3300    8.3400    8.3500    8.3600    8.3700    8.3800    8.3900
    8.4000    8.4100    8.4200    8.4300    8.4400    8.4500    8.4600    8.4700
    8.4800    8.4900    8.5000    8.5100    8.5200    8.5300    8.5400    8.5500
    8.5600    8.5700    8.5800    8.5900    8.6000    8.6100    8.6200    8.6300
    8.6400    8.6500    8.6600    8.6700    8.6800    8.6900    8.7000    8.7100
    8.7200    8.7300    8.7400    8.7500    8.7600    8.7700    8.7800    8.7900
    8.8000    8.8100    8.8200    8.8300    8.8400    8.8500    8.8600    8.8700
    8.8800    8.8900    8.9000    8.9100    8.9200    8.9300    8.9400    8.9500
    8.9600    8.9700    8.9800    8.9900    9.0000    9.0100    9.0200    9.0300
    9.0400    9.0500    9.0600    9.0700    9.0800    9.0900    9.1000    9.1100
    9.1200    9.1300    9.1400    9.1500    9.1600    9.1700    9.1800    9.1900
    9.2000    9.2100    9.2200    9.2300    9.2400    9.2500
   </PP_R>
   <PP_RAB type="real"  size=" 926" columns="8">
    0.0100    0.0100    0.0100    0.0100    0.0100    0.0100    0.0100    0.0100
    0.0100    0.0100    0.0100    0.0100    0.0100    0.0100    0.0100    0.0100
    0.0100    0.0100    0.0100    0.0100    0.0100    0.0100    0.0100    0.0100
    0.0100    0.0100    0.0100    0.0100    0.0100    0.0100    0.0100    0.0100
    0.0100    0.0100    0.0100    0.0100    0.0100    0.0100    0.0100    0.0100
    0.0100    0.0100    0.0100    0.0100    0.0100    0.0100    0.0100    0.0100
    0.0100    0.0100    0.0100    0.0100    0.0100    0.0100    0.0100    0.0100
    0.0100    0.0100    0.0100    0.0100    0.0100    0.0100    0.0100    0.0100
    0.0100    0.0100    0.0100    0.0100    0.0100    0.0100    0.0100    0.0100
    0.0100    0.0100    0.0100    0.0100    0.0100    0.0100    0.0100    0.0100
    0.0100    0.0100    0.0100    0.0100    0.0100    0.0100    0.0100    0.0100
    0.0100    0.0100    0.0100    0.0100    0.0100    0.0100    0.0100    0.0100
    0.0100    0.0100    0.0100    0.0100    0.0100    0.0100    0.0100    0.0100
    0.0100    0.0100    0.0100    0.0100    0.0100    0.0100    0.0100    0.0100
    0.0100    0.0100    0.0100    0.0100    0.0100    0.0100    0.0100    0.0100
    0.0100    0.0100    0.0100    0.0100    0.0100    0.0100    0.0100    0.0100
    0.0100    0.0100    0.0100    0.0100    0.0100    0.0100    0.0100    0.0100
    0.0100    0.0100    0.0100    0.0100    0.0100    0.0100    0.0100    0.0100
    0.0100    0.0100    0.0100    0.0100    0.0100    0.0100    0.0100    0.0100
    0.0100    0.0100    0.0100    0.0100    0.0100    0.0100    0.0100    0.0100
    0.0100    0.0100    0.0100    0.0100    0.0100    0.0100    0.0100    0.0100
    0.0100    0.0100    0.0100    0.0100    0.0100    0.0100    0.0100    0.0100
    0.0100    0.0100    0.0100    0.0100    0.0100    0.0100    0.0100    0.0100
    0.0100    0.0100    0.0100    0.0100    0.0100    0.0100    0.0100    0.0100
    0.0100    0.0100    0.0100    0.0100    0.0100    0.0100    0.0100    0.0100
    0.0100    0.0100    0.0100    0.0100    0.0100    0.0100    0.0100    0.0100
    0.0100    0.0100    0.0100    0.0100    0.0100    0.0100    0.0100    0.0100
    0.0100    0.0100    0.0100    0.0100    0.0100    0.0100    0.0100    0.0100
    0.0100    0.0100    0.0100    0.0100    0.0100    0.0100    0.0100    0.0100
    0.0100    0.0100    0.0100    0.0100    0.0100    0.0100    0.0100    0.0100
    0.0100    0.0100    0.0100    0.0100    0.0100    0.0100    0.0100    0.0100
    0.0100    0.0100    0.0100    0.0100    0.0100    0.0100    0.0100    0.0100
    0.0100    0.0100    0.0100    0.0100    0.0100    0.0100    0.0100    0.0100
    0.0100    0.0100    0.0100    0.0100    0.0100    0.0100    0.0100    0.0100
    0.0100    0.0100    0.0100    0.0100    0.0100    0.0100    0.0100    0.0100
    0.0100    0.0100    0.0100    0.0100    0.0100    0.0100    0.0100    0.0100
    0.0100    0.0100    0.0100    0.0100    0.0100    0.0100    0.0100    0.0100
    0.0100    0.0100    0.0100    0.0100    0.0100    0.0100    0.0100    0.0100
    0.0100    0.0100    0.0100    0.0100    0.0100    0.0100    0.0100    0.0100
    0.0100    0.0100    0.0100    0.0100    0.0100    0.0100    0.0100    0.0100
    0.0100    0.0100    0.0100    0.0100    0.0100    0.0100    0.0100    0.0100
    0.0100    0.0100    0.0100    0.0100    0.0100    0.0100    0.0100    0.0100
    0.0100    0.0100    0.0100    0.0100    0.0100    0.0100    0.0100    0.0100
    0.0100    0.0100    0.0100    0.0100    0.0100    0.0100    0.0100    0.0100
    0.0100    0.0100    0.0100    0.0100    0.0100    0.0100    0.0100    0.0100
    0.0100    0.0100    0.0100    0.0100    0.0100    0.0100    0.0100    0.0100
    0.0100    0.0100    0.0100    0.0100    0.0100    0.0100    0.0100    0.0100
    0.0100    0.0100    0.0100    0.0100    0.0100    0.0100    0.0100    0.0100
    0.0100    0.0100    0.0100    0.0100    0.0100    0.0100    0.0100    0.0100
    0.0100    0.0100    0.0100    0.0100    0.0100    0.0100    0.0100    0.0100
    0.0100    0.0100    0.0100    0.0100    0.0100    0.0100    0.0100    0.0100
    0.0100    0.0100    0.0100    0.0100    0.0100    0.0100    0.0100    0.0100
    0.0100    0.0100    0.0100    0.0100    0.0100    0.0100    0.0100    0.0100
    0.0100    0.0100    0.0100    0.0100    0.0100    0.0100    0.0100    0.0100
    0.0100    0.0100    0.0100    0.0100    0.0100    0.0100    0.0100    0.0100
    0.0100    0.0100    0.0100    0.0100    0.0100    0.0100    0.0100    0.0100
    0.0100    0.0100    0.0100    0.0100    0.0100    0.0100    0.0100    0.0100
    0.0100    0.0100    0.0100    0.0100    0.0100    0.0100    0.0100    0.0100
    0.0100    0.0100    0.0100    0.0100    0.0100    0.0100    0.0100    0.0100
    0.0100    0.0100    0.0100    0.0100    0.0100    0.0100    0.0100    0.0100
    0.0100    0.0100    0.0100    0.0100    0.0100    0.0100    0.0100    0.0100
    0.0100    0.0100    0.0100    0.0100    0.0100    0.0100    0.0100    0.0100
    0.0100    0.0100    0.0100    0.0100    0.0100    0.0100    0.0100    0.0100
    0.0100    0.0100    0.0100    0.0100    0.0100    0.0100    0.0100    0.0100
    0.0100    0.0100    0.0100    0.0100    0.0100    0.0100    0.0100    0.0100
    0.0100    0.0100    0.0100    0.0100    0.0100    0.0100    0.0100    0.0100
    0.0100    0.0100    0.0100    0.0100    0.0100    0.0100    0.0100    0.0100
    0.0100    0.0100    0.0100    0.0100    0.0100    0.0100    0.0100    0.0100
    0.0100    0.0100    0.0100    0.0100    0.0100    0.0100    0.0100    0.0100
    0.0100    0.0100    0.0100    0.0100    0.0100    0.0100    0.0100    0.0100
    0.0100    0.0100    0.0100    0.0100    0.0100    0.0100    0.0100    0.0100
    0.0100    0.0100    0.0100    0.0100    0.0100    0.0100    0.0100    0.0100
    0.0100    0.0100    0.0100    0.0100    0.0100    0.0100    0.0100    0.0100
    0.0100    0.0100    0.0100    0.0100    0.0100    0.0100    0.0100    0.0100
    0.0100    0.0100    0.0100    0.0100    0.0100    0.0100    0.0100    0.0100
    0.0100    0.0100    0.0100    0.0100    0.0100    0.0100    0.0100    0.0100
    0.0100    0.0100    0.0100    0.0100    0.0100    0.0100    0.0100    0.0100
    0.0100    0.0100    0.0100    0.0100    0.0100    0.0100    0.0100    0.0100
    0.0100    0.0100    0.0100    0.0100    0.0100    0.0100    0.0100    0.0100
    0.0100    0.0100    0.0100    0.0100    0.0100    0.0100    0.0100    0.0100
    0.0100    0.0100    0.0100    0.0100    0.0100    0.0100    0.0100    0.0100
    0.0100    0.0100    0.0100    0.0100    0.0100    0.0100    0.0100    0.0100
    0.0100    0.0100    0.0100    0.0100    0.0100    0.0100    0.0100    0.0100
    0.0100    0.0100    0.0100    0.0100    0.0100    0.0100    0.0100    0.0100
    0.0100    0.0100    0.0100    0.0100    0.0100    0.0100    0.0100    0.0100
    0.0100    0.0100    0.0100    0.0100    0.0100    0.0100    0.0100    0.0100
    0.0100    0.0100    0.0100    0.0100    0.0100    0.0100    0.0100    0.0100
    0.0100    0.0100    0.0100    0.0100    0.0100    0.0100    0.0100    0.0100
    0.0100    0.0100    0.0100    0.0100    0.0100    0.0100    0.0100    0.0100
    0.0100    0.0100    0.0100    0.0100    0.0100    0.0100    0.0100    0.0100
    0.0100    0.0100    0.0100    0.0100    0.0100    0.0100    0.0100    0.0100
    0.0100    0.0100    0.0100    0.0100    0.0100    0.0100    0.0100    0.0100
    0.0100    0.0100    0.0100    0.0100    0.0100    0.0100    0.0100    0.0100
    0.0100    0.0100    0.0100    0.0100    0.0100    0.0100    0.0100    0.0100
    0.0100    0.0100    0.0100    0.0100    0.0100    0.0100    0.0100    0.0100
    0.0100    0.0100    0.0100    0.0100    0.0100    0.0100    0.0100    0.0100
    0.0100    0.0100    0.0100    0.0100    0.0100    0.0100    0.0100    0.0100
    0.0100    0.0100    0.0100    0.0100    0.0100    0.0100    0.0100    0.0100
    0.0100    0.0100    0.0100    0.0100    0.0100    0.0100    0.0100    0.0100
    0.0100    0.0100    0.0100    0.0100    0.0100    0.0100    0.0100    0.0100
    0.0100    0.0100    0.0100    0.0100    0.0100    0.0100    0.0100    0.0100
    0.0100    0.0100    0.0100    0.0100    0.0100    0.0100    0.0100    0.0100
    0.0100    0.0100    0.0100    0.0100    0.0100    0.0100    0.0100    0.0100
    0.0100    0.0100    0.0100    0.0100    0.0100    0.0100    0.0100    0.0100
    0.0100    0.0100    0.0100    0.0100    0.0100    0.0100    0.0100    0.0100
    0.0100    0.0100    0.0100    0.0100    0.0100    0.0100    0.0100    0.0100
    0.0100    0.0100    0.0100    0.0100    0.0100    0.0100    0.0100    0.0100
    0.0100    0.0100    0.0100    0.0100    0.0100    0.0100    0.0100    0.0100
    0.0100    0.0100    0.0100    0.0100    0.0100    0.0100    0.0100    0.0100
    0.0100    0.0100    0.0100    0.0100    0.0100    0.0100    0.0100    0.0100
    0.0100    0.0100    0.0100    0.0100    0.0100    0.0100    0.0100    0.0100
    0.0100    0.0100    0.0100    0.0100    0.0100    0.0100    0.0100    0.0100
    0.0100    0.0100    0.0100    0.0100    0.0100    0.0100    0.0100    0.0100
    0.0100    0.0100    0.0100    0.0100    0.0100    0.0100    0.0100    0.0100
    0.0100    0.0100    0.0100    0.0100    0.0100    0.0100    0.0100    0.0100
    0.0100    0.0100    0.0100    0.0100    0.0100    0.0100
   </PP_RAB>
 </PP_MESH>
  <PP_LOCAL type="real"  size=" 926" columns="4">
   -2.5281156282E+01   -2.5279528848E+01   -2.5274651120E+01   -2.5266536739E+01
   -2.5255207979E+01   -2.5240695109E+01   -2.5223035556E+01   -2.5202272922E+01
   -2.5178455933E+01   -2.5151637344E+01   -2.5121872889E+01   -2.5089220284E+01
   -2.5053738339E+01   -2.5015486174E+01   -2.4974522579E+01   -2.4930905481E+01
   -2.4884691551E+01   -2.4835935902E+01   -2.4784691905E+01   -2.4731011067E+01
   -2.4674942994E+01   -2.4616535396E+01   -2.4555834145E+01   -2.4492883352E+01
   -2.4427725481E+01   -2.4360401461E+01   -2.4290950822E+01   -2.4219411822E+01
   -2.4145821582E+01   -2.4070216215E+01   -2.3992630949E+01   -2.3913100248E+01
   -2.3831657918E+01   -2.3748337218E+01   -2.3663170949E+01   -2.3576191549E+01
   -2.3487431167E+01   -2.3396921745E+01   -2.3304695079E+01   -2.3210782883E+01
   -2.3115216843E+01   -2.3018028670E+01   -2.2919250137E+01   -2.2818913130E+01
   -2.2717049674E+01   -2.2613691971E+01   -2.2508872336E+01   -2.2402621251E+01
   -2.2295023902E+01   -2.2185976699E+01   -2.2075601326E+01   -2.1963929221E+01
   -2.1850995673E+01   -2.1736835130E+01   -2.1621482374E+01   -2.1504972523E+01
   -2.1387341044E+01   -2.1268623750E+01   -2.1148856809E+01   -2.1028076742E+01
   -2.0906320421E+01   -2.0783625075E+01   -2.0660028279E+01   -2.0535567955E+01
   -2.0410282368E+01   -2.0284210118E+01   -2.0157390130E+01   -2.0029861652E+01
   -1.9901664241E+01   -1.9772837752E+01   -1.9643422329E+01   -1.9513458389E+01
   -1.9382986609E+01   -1.9252047912E+01   -1.9120683449E+01   -1.8988934582E+01
   -1.8856842865E+01   -1.8724450023E+01   -1.8591797934E+01   -1.8458928604E+01
   -1.8325884147E+01   -1.8192706758E+01   -1.8059438687E+01   -1.7926122216E+01
   -1.7792799630E+01   -1.7659513187E+01   -1.7526305091E+01   -1.7393217460E+01
   -1.7260292296E+01   -1.7127571450E+01   -1.6995096593E+01   -1.6862909179E+01
   -1.6731050411E+01   -1.6599561205E+01   -1.6468482154E+01   -1.6337853491E+01
   -1.6207715051E+01   -1.6078106234E+01   -1.5949065963E+01   -1.5820632648E+01
   -1.5692844143E+01   -1.5565737707E+01   -1.5439349962E+01   -1.5313716855E+01
   -1.5188873611E+01   -1.5064854695E+01   -1.4941693768E+01   -1.4819423646E+01
   -1.4698076255E+01   -1.4577682590E+01   -1.4458272670E+01   -1.4339875498E+01
   -1.4222519015E+01   -1.4106230059E+01   -1.3991034316E+01   -1.3876956287E+01
   -1.3764019233E+01   -1.3652245142E+01   -1.3541654676E+01   -1.3432267137E+01
   -1.3324100416E+01   -1.3217170956E+01   -1.3111493704E+01   -1.3007082070E+01
   -1.2903947884E+01   -1.2802101353E+01   -1.2701551017E+01   -1.2602303706E+01
   -1.2504364499E+01   -1.2407736677E+01   -1.2312421803E+01   -1.2218418691E+01
   -1.2125725761E+01   -1.2034343637E+01   -1.1944250558E+01   -1.1855420671E+01
   -1.1767868136E+01   -1.1681593200E+01   -1.1596570930E+01   -1.1512783504E+01
   -1.1430213230E+01   -1.1348837358E+01   -1.1268630922E+01   -1.1189567680E+01
   -1.1111622609E+01   -1.1034771695E+01   -1.0958991391E+01   -1.0884258874E+01
   -1.0810551964E+01   -1.0737849116E+01   -1.0666129391E+01   -1.0595372440E+01
   -1.0525558488E+01   -1.0456668308E+01   -1.0388683210E+01   -1.0321585018E+01
   -1.0255356059E+01   -1.0189979141E+01   -1.0125437539E+01   -1.0061714980E+01
   -9.9987956269E+00   -9.9366640643E+00   -9.8753052829E+00   -9.8147046666E+00
   -9.7548479785E+00   -9.6957213481E+00   -9.6373112580E+00   -9.5796045323E+00
   -9.5225883245E+00   -9.4662501064E+00   -9.4105776569E+00   -9.3555590523E+00
   -9.3011826558E+00   -9.2474371087E+00   -9.1943113216E+00   -9.1417944659E+00
   -9.0898759661E+00   -9.0385454928E+00   -8.9877929560E+00   -8.9376084989E+00
   -8.8879824918E+00   -8.8389055266E+00   -8.7903684108E+00   -8.7423621614E+00
   -8.6948779988E+00   -8.6479073410E+00   -8.6014417984E+00   -8.5554731680E+00
   -8.5099934290E+00   -8.4649947372E+00   -8.4204694203E+00   -8.3764099733E+00
   -8.3328090537E+00   -8.2896594774E+00   -8.2469542143E+00   -8.2046863837E+00
   -8.1628492509E+00   -8.1214362231E+00   -8.0804408451E+00   -8.0398567963E+00
   -7.9996778868E+00   -7.9598980537E+00   -7.9205113583E+00   -7.8815119823E+00
   -7.8428942248E+00   -7.8046524993E+00   -7.7667813307E+00   -7.7292753524E+00
   -7.6921293032E+00   -7.6553380251E+00   -7.6188964603E+00   -7.5827996488E+00
   -7.5470427256E+00   -7.5116209189E+00   -7.4765295471E+00   -7.4417640170E+00
   -7.4073198212E+00   -7.3731925366E+00   -7.3393778217E+00   -7.3058714147E+00
   -7.2726691320E+00   -7.2397668658E+00   -7.2071605827E+00   -7.1748463216E+00
   -7.1428201920E+00   -7.1110783728E+00   -7.0796171099E+00   -7.0484327155E+00
   -7.0175215660E+00   -6.9868801005E+00   -6.9565048199E+00   -6.9263922850E+00
   -6.8965391155E+00   -6.8669419884E+00   -6.8375976369E+00   -6.8085028494E+00
   -6.7796544678E+00   -6.7510493867E+00   -6.7226845524E+00   -6.6945569615E+00
   -6.6666636598E+00   -6.6390017418E+00   -6.6115683490E+00   -6.5843606696E+00
   -6.5573759369E+00   -6.5306114291E+00   -6.5040644677E+00   -6.4777324172E+00
   -6.4516126839E+00   -6.4257027153E+00   -6.3999999990E+00   -6.3745020624E+00
   -6.3492064715E+00   -6.3241108304E+00   -6.2992127804E+00   -6.2745099995E+00
   -6.2500002017E+00   -6.2256811359E+00   -6.2015505860E+00   -6.1776063696E+00
   -6.1538463377E+00   -6.1302683741E+00   -6.1068703944E+00   -6.0836503461E+00
   -6.0606062075E+00   -6.0377359874E+00   -6.0150377242E+00   -5.9925094860E+00
   -5.9701493695E+00   -5.9479554996E+00   -5.9259260291E+00   -5.9040591381E+00
   -5.8823530333E+00   -5.8608059480E+00   -5.8394161409E+00   -5.8181818963E+00
   -5.7971015234E+00   -5.7761733555E+00   -5.7553957503E+00   -5.7347670886E+00
   -5.7142857748E+00   -5.6939502355E+00   -5.6737589202E+00   -5.6537102998E+00
   -5.6338028670E+00   -5.6140351356E+00   -5.5944056402E+00   -5.5749129359E+00
   -5.5555555977E+00   -5.5363322203E+00   -5.5172414181E+00   -5.4982818243E+00
   -5.4794520907E+00   -5.4607508879E+00   -5.4421769042E+00   -5.4237288458E+00
   -5.4054054366E+00   -5.3872054174E+00   -5.3691275460E+00   -5.3511705968E+00
   -5.3333333608E+00   -5.3156146446E+00   -5.2980132709E+00   -5.2805280779E+00
   -5.2631579192E+00   -5.2459016631E+00   -5.2287581931E+00   -5.2117264070E+00
   -5.1948052169E+00   -5.1779935490E+00   -5.1612903436E+00   -5.1446945543E+00
   -5.1282051483E+00   -5.1118211059E+00   -5.0955414205E+00   -5.0793650982E+00
   -5.0632911578E+00   -5.0473186301E+00   -5.0314465587E+00   -5.0156739987E+00
   -5.0000000172E+00   -4.9844236929E+00   -4.9689441160E+00   -4.9535603878E+00
   -4.9382716210E+00   -4.9230769389E+00   -4.9079754757E+00   -4.8929663762E+00
   -4.8780487956E+00   -4.8632218993E+00   -4.8484848631E+00   -4.8338368724E+00
   -4.8192771226E+00   -4.8048048188E+00   -4.7904191755E+00   -4.7761194166E+00
   -4.7619047754E+00   -4.7477744940E+00   -4.7337278238E+00   -4.7197640247E+00
   -4.7058823657E+00   -4.6920821241E+00   -4.6783625856E+00   -4.6647230444E+00
   -4.6511628029E+00   -4.6376811715E+00   -4.6242774685E+00   -4.6109510204E+00
   -4.5977011610E+00   -4.5845272321E+00   -4.5714285828E+00   -4.5584045696E+00
   -4.5454545566E+00   -4.5325779147E+00   -4.5197740222E+00   -4.5070422643E+00
   -4.4943820331E+00   -4.4817927276E+00   -4.4692737534E+00   -4.4568245228E+00
   -4.4444444546E+00   -4.4321329741E+00   -4.4198895127E+00   -4.4077135085E+00
   -4.3956044054E+00   -4.3835616535E+00   -4.3715847090E+00   -4.3596730340E+00
   -4.3478260963E+00   -4.3360433697E+00   -4.3243243335E+00   -4.3126684727E+00
   -4.3010752778E+00   -4.2895442449E+00   -4.2780748752E+00   -4.2666666754E+00
   -4.2553191576E+00   -4.2440318388E+00   -4.2328042413E+00   -4.2216358923E+00
   -4.2105263241E+00   -4.1994750739E+00   -4.1884816836E+00   -4.1775457000E+00
   -4.1666666747E+00   -4.1558441638E+00   -4.1450777281E+00   -4.1343669329E+00
   -4.1237113479E+00   -4.1131105475E+00   -4.1025641101E+00   -4.0920716188E+00
   -4.0816326605E+00   -4.0712468267E+00   -4.0609137129E+00   -4.0506329186E+00
   -4.0404040476E+00   -4.0302267073E+00   -4.0201005095E+00   -4.0100250696E+00
   -4.0000000069E+00   -3.9900249445E+00   -3.9800995093E+00   -3.9702233318E+00
   -3.9603960462E+00   -3.9506172905E+00   -3.9408867060E+00   -3.9312039377E+00
   -3.9215686338E+00   -3.9119804464E+00   -3.9024390307E+00   -3.8929440452E+00
   -3.8834951518E+00   -3.8740920158E+00   -3.8647343056E+00   -3.8554216927E+00
   -3.8461538521E+00   -3.8369304615E+00   -3.8277512020E+00   -3.8186157576E+00
   -3.8095238153E+00   -3.8004750651E+00   -3.7914691999E+00   -3.7825059157E+00
   -3.7735849112E+00   -3.7647058878E+00   -3.7558685500E+00   -3.7470726049E+00
   -3.7383177623E+00   -3.7296037349E+00   -3.7209302378E+00   -3.7122969889E+00