<UPF version="2.0.1">
  <PP_INFO>

 This pseudopotential file has been produced using the code
 ONCVPSP  (Optimized Norm-Conservinng Vanderbilt PSeudopotential)
 scalar-relativistic version 3.3.1 12/12/2017 by D. R. Hamann
 The code is available through a link at URL www.mat-simresearch.com.
 Documentation with the package provides a full discription of the
 input data below.


 While it is not required under the terms of the GNU GPL, it is
 suggested that you cite D. R. Hamann, Phys. Rev. B 88, 085117 (2013)
 in any publication using these pseudopotentials.

    <PP_INPUTFILE>
# ATOM AND REFERENCE CONFIGURATION
# atsym  z   nc   nv     iexc    psfile
  F  9.00    1    2       3      upf
#
#   n    l    f        energy (Ha)
    1    0    2.00
    2    0    2.00
    2    1    5.00
#
# PSEUDOPOTENTIAL AND OPTIMIZATION
# lmax
    1
#
#   l,   rc,      ep,       ncon, nbas, qcut
    0   1.56741  -1.08660    5    8   8.73495
    1   1.64712  -0.41543    5    8   8.69707
#
# LOCAL POTENTIAL
# lloc, lpopt,  rc(5),   dvloc0
    4    5   0.96222      0.00000
#
# VANDERBILT-KLEINMAN-BYLANDER PROJECTORs
# l, nproj, debl
    0    2   1.51125
    1    2   1.53167
#
# MODEL CORE CHARGE
# icmod, fcfact, rcfact
    0   0.00000   0.00000
#
# LOG DERIVATIVE ANALYSIS
# epsh1, epsh2, depsh
   -5.00    3.00    0.02
#
# OUTPUT GRID
# rlmax, drl
    6.00    0.01
#
# TEST CONFIGURATIONS
# ncnf
    0
# nvcnf
#   n    l    f
    </PP_INPUTFILE>
  </PP_INFO>
  <!--                               -->
  <!-- END OF HUMAN READABLE SECTION -->
  <!--                               -->
    <PP_HEADER
       generated="Generated using ONCVPSP code by D. R. Hamann"
       author="anonymous"
       date="220413"
       comment=""
       element="F "
       pseudo_type="NC"
       relativistic="scalar"
       is_ultrasoft="F"
       is_paw="F"
       is_coulomb="F"
       has_so="F"
       has_wfc="F"
       has_gipaw="F"
       core_correction="F"
       functional="PZ"
       z_valence="    7.00"
       total_psenergy="  -4.73161310113E+01"
       rho_cutoff="   8.23000000000E+00"
       l_max="1"
       l_local="-1"
       mesh_size="   824"
       number_of_wfc="2"
       number_of_proj="4"/>
 <PP_MESH>
   <PP_R type="real"  size=" 824" columns="8">
    0.0000    0.0100    0.0200    0.0300    0.0400    0.0500    0.0600    0.0700
    0.0800    0.0900    0.1000    0.1100    0.1200    0.1300    0.1400    0.1500
    0.1600    0.1700    0.1800    0.1900    0.2000    0.2100    0.2200    0.2300
    0.2400    0.2500    0.2600    0.2700    0.2800    0.2900    0.3000    0.3100
    0.3200    0.3300    0.3400    0.3500    0.3600    0.3700    0.3800    0.3900
    0.4000    0.4100    0.4200    0.4300    0.4400    0.4500    0.4600    0.4700
    0.4800    0.4900    0.5000    0.5100    0.5200    0.5300    0.5400    0.5500
    0.5600    0.5700    0.5800    0.5900    0.6000    0.6100    0.6200    0.6300
    0.6400    0.6500    0.6600    0.6700    0.6800    0.6900    0.7000    0.7100
    0.7200    0.7300    0.7400    0.7500    0.7600    0.7700    0.7800    0.7900
    0.8000    0.8100    0.8200    0.8300    0.8400    0.8500    0.8600    0.8700
    0.8800    0.8900    0.9000    0.9100    0.9200    0.9300    0.9400    0.9500
    0.9600    0.9700    0.9800    0.9900    1.0000    1.0100    1.0200    1.0300
    1.0400    1.0500    1.0600    1.0700    1.0800    1.0900    1.1000    1.1100
    1.1200    1.1300    1.1400    1.1500    1.1600    1.1700    1.1800    1.1900
    1.2000    1.2100    1.2200    1.2300    1.2400    1.2500    1.2600    1.2700
    1.2800    1.2900    1.3000    1.3100    1.3200    1.3300    1.3400    1.3500
    1.3600    1.3700    1.3800    1.3900    1.4000    1.4100    1.4200    1.4300
    1.4400    1.4500    1.4600    1.4700    1.4800    1.4900    1.5000    1.5100
    1.5200    1.5300    1.5400    1.5500    1.5600    1.5700    1.5800    1.5900
    1.6000    1.6100    1.6200    1.6300    1.6400    1.6500    1.6600    1.6700
    1.6800    1.6900    1.7000    1.7100    1.7200    1.7300    1.7400    1.7500
    1.7600    1.7700    1.7800    1.7900    1.8000    1.8100    1.8200    1.8300
    1.8400    1.8500    1.8600    1.8700    1.8800    1.8900    1.9000    1.9100
    1.9200    1.9300    1.9400    1.9500    1.9600    1.9700    1.9800    1.9900
    2.0000    2.0100    2.0200    2.0300    2.0400    2.0500    2.0600    2.0700
    2.0800    2.0900    2.1000    2.1100    2.1200    2.1300    2.1400    2.1500
    2.1600    2.1700    2.1800    2.1900    2.2000    2.2100    2.2200    2.2300
    2.2400    2.2500    2.2600    2.2700    2.2800    2.2900    2.3000    2.3100
    2.3200    2.3300    2.3400    2.3500    2.3600    2.3700    2.3800    2.3900
    2.4000    2.4100    2.4200    2.4300    2.4400    2.4500    2.4600    2.4700
    2.4800    2.4900    2.5000    2.5100    2.5200    2.5300    2.5400    2.5500
    2.5600    2.5700    2.5800    2.5900    2.6000    2.6100    2.6200    2.6300
    2.6400    2.6500    2.6600    2.6700    2.6800    2.6900    2.7000    2.7100
    2.7200    2.7300    2.7400    2.7500    2.7600    2.7700    2.7800    2.7900
    2.8000    2.8100    2.8200    2.8300    2.8400    2.8500    2.8600    2.8700
    2.8800    2.8900    2.9000    2.9100    2.9200    2.9300    2.9400    2.9500
    2.9600    2.9700    2.9800    2.9900    3.0000    3.0100    3.0200    3.0300
    3.0400    3.0500    3.0600    3.0700    3.0800    3.0900    3.1000    3.1100
    3.1200    3.1300    3.1400    3.1500    3.1600    3.1700    3.1800    3.1900
    3.2000    3.2100    3.2200    3.2300    3.2400    3.2500    3.2600    3.2700
    3.2800    3.2900    3.3000    3.3100    3.3200    3.3300    3.3400    3.3500
    3.3600    3.3700    3.3800    3.3900    3.4000    3.4100    3.4200    3.4300
    3.4400    3.4500    3.4600    3.4700    3.4800    3.4900    3.5000    3.5100
    3.5200    3.5300    3.5400    3.5500    3.5600    3.5700    3.5800    3.5900
    3.6000    3.6100    3.6200    3.6300    3.6400    3.6500    3.6600    3.6700
    3.6800    3.6900    3.7000    3.7100    3.7200    3.7300    3.7400    3.7500
    3.7600    3.7700    3.7800    3.7900    3.8000    3.8100    3.8200    3.8300
    3.8400    3.8500    3.8600    3.8700    3.8800    3.8900    3.9000    3.9100
    3.9200    3.9300    3.9400    3.9500    3.9600    3.9700    3.9800    3.9900
    4.0000    4.0100    4.0200    4.0300    4.0400    4.0500    4.0600    4.0700
    4.0800    4.0900    4.1000    4.1100    4.1200    4.1300    4.1400    4.1500
    4.1600    4.1700    4.1800    4.1900    4.2000    4.2100    4.2200    4.2300
    4.2400    4.2500    4.2600    4.2700    4.2800    4.2900    4.3000    4.3100
    4.3200    4.3300    4.3400    4.3500    4.3600    4.3700    4.3800    4.3900
    4.4000    4.4100    4.4200    4.4300    4.4400    4.4500    4.4600    4.4700
    4.4800    4.4900    4.5000    4.5100    4.5200    4.5300    4.5400    4.5500
    4.5600    4.5700    4.5800    4.5900    4.6000    4.6100    4.6200    4.6300
    4.6400    4.6500    4.6600    4.6700    4.6800    4.6900    4.7000    4.7100
    4.7200    4.7300    4.7400    4.7500    4.7600    4.7700    4.7800    4.7900
    4.8000    4.8100    4.8200    4.8300    4.8400    4.8500    4.8600    4.8700
    4.8800    4.8900    4.9000    4.9100    4.9200    4.9300    4.9400    4.9500
    4.9600    4.9700    4.9800    4.9900    5.0000    5.0100    5.0200    5.0300
    5.0400    5.0500    5.0600    5.0700    5.0800    5.0900    5.1000    5.1100
    5.1200    5.1300    5.1400    5.1500    5.1600    5.1700    5.1800    5.1900
    5.2000    5.2100    5.2200    5.2300    5.2400    5.2500    5.2600    5.2700
    5.2800    5.2900    5.3000    5.3100    5.3200    5.3300    5.3400    5.3500
    5.3600    5.3700    5.3800    5.3900    5.4000    5.4100    5.4200    5.4300
    5.4400    5.4500    5.4600    5.4700    5.4800    5.4900    5.5000    5.5100
    5.5200    5.5300    5.5400    5.5500    5.5600    5.5700    5.5800    5.5900
    5.6000    5.6100    5.6200    5.6300    5.6400    5.6500    5.6600    5.6700
    5.6800    5.6900    5.7000    5.7100    5.7200    5.7300    5.7400    5.7500
    5.7600    5.7700    5.7800    5.7900    5.8000    5.8100    5.8200    5.8300
    5.8400    5.8500    5.8600    5.8700    5.8800    5.8900    5.9000    5.9100
    5.9200    5.9300    5.9400    5.9500    5.9600    5.9700    5.9800    5.9900
    6.0000    6.0100    6.0200    6.0300    6.0400    6.0500    6.0600    6.0700
    6.0800    6.0900    6.1000    6.1100    6.1200    6.1300    6.1400    6.1500
    6.1600    6.1700    6.1800    6.1900    6.2000    6.2100    6.2200    6.2300
    6.2400    6.2500    6.2600    6.2700    6.2800    6.2900    6.3000    6.3100
    6.3200    6.3300    6.3400    6.3500    6.3600    6.3700    6.3800    6.3900
    6.4000    6.4100    6.4200    6.4300    6.4400    6.4500    6.4600    6.4700
    6.4800    6.4900    6.5000    6.5100    6.5200    6.5300    6.5400    6.5500
    6.5600    6.5700    6.5800    6.5900    6.6000    6.6100    6.6200    6.6300
    6.6400    6.6500    6.6600    6.6700    6.6800    6.6900    6.7000    6.7100
    6.7200    6.7300    6.7400    6.7500    6.7600    6.7700    6.7800    6.7900
    6.8000    6.8100    6.8200    6.8300    6.8400    6.8500    6.8600    6.8700
    6.8800    6.8900    6.9000    6.9100    6.9200    6.9300    6.9400    6.9500
    6.9600    6.9700    6.9800    6.9900    7.0000    7.0100    7.0200    7.0300
    7.0400    7.0500    7.0600    7.0700    7.0800    7.0900    7.1000    7.1100
    7.1200    7.1300    7.1400    7.1500    7.1600    7.1700    7.1800    7.1900
    7.2000    7.2100    7.2200    7.2300    7.2400    7.2500    7.2600    7.2700
    7.2800    7.2900    7.3000    7.3100    7.3200    7.3300    7.3400    7.3500
    7.3600    7.3700    7.3800    7.3900    7.4000    7.4100    7.4200    7.4300
    7.4400    7.4500    7.4600    7.4700    7.4800    7.4900    7.5000    7.5100
    7.5200    7.5300    7.5400    7.5500    7.5600    7.5700    7.5800    7.5900
    7.6000    7.6100    7.6200    7.6300    7.6400    7.6500    7.6600    7.6700
    7.6800    7.6900    7.7000    7.7100    7.7200    7.7300    7.7400    7.7500
    7.7600    7.7700    7.7800    7.7900    7.8000    7.8100    7.8200    7.8300
    7.8400    7.8500    7.8600    7.8700    7.8800    7.8900    7.9000    7.9100
    7.9200    7.9300    7.9400    7.9500    7.9600    7.9700    7.9800    7.9900
    8.0000    8.0100    8.0200    8.0300    8.0400    8.0500    8.0600    8.0700
    8.0800    8.0900    8.1000    8.1100    8.1200    8.1300    8.1400    8.1500
    8.1600    8.1700    8.1800    8.1900    8.2000    8.2100    8.2200    8.2300
   </PP_R>
   <PP_RAB type="real"  size=" 824" columns="8">
    0.0100    0.0100    0.0100    0.0100    0.0100    0.0100    0.0100    0.0100
    0.0100    0.0100    0.0100    0.0100    0.0100    0.0100    0.0100    0.0100
    0.0100    0.0100    0.0100    0.0100    0.0100    0.0100    0.0100    0.0100
    0.0100    0.0100    0.0100    0.0100    0.0100    0.0100    0.0100    0.0100
    0.0100    0.0100    0.0100    0.0100    0.0100    0.0100    0.0100    0.0100
    0.0100    0.0100    0.0100    0.0100    0.0100    0.0100    0.0100    0.0100
    0.0100    0.0100    0.0100    0.0100    0.0100    0.0100    0.0100    0.0100
    0.0100    0.0100    0.0100    0.0100    0.0100    0.0100    0.0100    0.0100
    0.0100    0.0100    0.0100    0.0100    0.0100    0.0100    0.0100    0.0100
    0.0100    0.0100    0.0100    0.0100    0.0100    0.0100    0.0100    0.0100
    0.0100    0.0100    0.0100    0.0100    0.0100    0.0100    0.0100    0.0100
    0.0100    0.0100    0.0100    0.0100    0.0100    0.0100    0.0100    0.0100
    0.0100    0.0100    0.0100    0.0100    0.0100    0.0100    0.0100    0.0100
    0.0100    0.0100    0.0100    0.0100    0.0100    0.0100    0.0100    0.0100
    0.0100    0.0100    0.0100    0.0100    0.0100    0.0100    0.0100    0.0100
    0.0100    0.0100    0.0100    0.0100    0.0100    0.0100    0.0100    0.0100
    0.0100    0.0100    0.0100    0.0100    0.0100    0.0100    0.0100    0.0100
    0.0100    0.0100    0.0100    0.0100    0.0100    0.0100    0.0100    0.0100
    0.0100    0.0100    0.0100    0.0100    0.0100    0.0100    0.0100    0.0100
    0.0100    0.0100    0.0100    0.0100    0.0100    0.0100    0.0100    0.0100
    0.0100    0.0100    0.0100    0.0100    0.0100    0.0100    0.0100    0.0100
    0.0100    0.0100    0.0100    0.0100    0.0100    0.0100    0.0100    0.0100
    0.0100    0.0100    0.0100    0.0100    0.0100    0.0100    0.0100    0.0100
    0.0100    0.0100    0.0100    0.0100    0.0100    0.0100    0.0100    0.0100
    0.0100    0.0100    0.0100    0.0100    0.0100    0.0100    0.0100    0.0100
    0.0100    0.0100    0.0100    0.0100    0.0100    0.0100    0.0100    0.0100
    0.0100    0.0100    0.0100    0.0100    0.0100    0.0100    0.0100    0.0100
    0.0100    0.0100    0.0100    0.0100    0.0100    0.0100    0.0100    0.0100
    0.0100    0.0100    0.0100    0.0100    0.0100    0.0100    0.0100    0.0100
    0.0100    0.0100    0.0100    0.0100    0.0100    0.0100    0.0100    0.0100
    0.0100    0.0100    0.0100    0.0100    0.0100    0.0100    0.0100    0.0100
    0.0100    0.0100    0.0100    0.0100    0.0100    0.0100    0.0100    0.0100
    0.0100    0.0100    0.0100    0.0100    0.0100    0.0100    0.0100    0.0100
    0.0100    0.0100    0.0100    0.0100    0.0100    0.0100    0.0100    0.0100
    0.0100    0.0100    0.0100    0.0100    0.0100    0.0100    0.0100    0.0100
    0.0100    0.0100    0.0100    0.0100    0.0100    0.0100    0.0100    0.0100
    0.0100    0.0100    0.0100    0.0100    0.0100    0.0100    0.0100    0.0100
    0.0100    0.0100    0.0100    0.0100    0.0100    0.0100    0.0100    0.0100
    0.0100    0.0100    0.0100    0.0100    0.0100    0.0100    0.0100    0.0100
    0.0100    0.0100    0.0100    0.0100    0.0100    0.0100    0.0100    0.0100
    0.0100    0.0100    0.0100    0.0100    0.0100    0.0100    0.0100    0.0100
    0.0100    0.0100    0.0100    0.0100    0.0100    0.0100    0.0100    0.0100
    0.0100    0.0100    0.0100    0.0100    0.0100    0.0100    0.0100    0.0100
    0.0100    0.0100    0.0100    0.0100    0.0100    0.0100    0.0100    0.0100
    0.0100    0.0100    0.0100    0.0100    0.0100    0.0100    0.0100    0.0100
    0.0100    0.0100    0.0100    0.0100    0.0100    0.0100    0.0100    0.0100
    0.0100    0.0100    0.0100    0.0100    0.0100    0.0100    0.0100    0.0100
    0.0100    0.0100    0.0100    0.0100    0.0100    0.0100    0.0100    0.0100
    0.0100    0.0100    0.0100    0.0100    0.0100    0.0100    0.0100    0.0100
    0.0100    0.0100    0.0100    0.0100    0.0100    0.0100    0.0100    0.0100
    0.0100    0.0100    0.0100    0.0100    0.0100    0.0100    0.0100    0.0100
    0.0100    0.0100    0.0100    0.0100    0.0100    0.0100    0.0100    0.0100
    0.0100    0.0100    0.0100    0.0100    0.0100    0.0100    0.0100    0.0100
    0.0100    0.0100    0.0100    0.0100    0.0100    0.0100    0.0100    0.0100
    0.0100    0.0100    0.0100    0.0100    0.0100    0.0100    0.0100    0.0100
    0.0100    0.0100    0.0100    0.0100    0.0100    0.0100    0.0100    0.0100
    0.0100    0.0100    0.0100    0.0100    0.0100    0.0100    0.0100    0.0100
    0.0100    0.0100    0.0100    0.0100    0.0100    0.0100    0.0100    0.0100
    0.0100    0.0100    0.0100    0.0100    0.0100    0.0100    0.0100    0.0100
    0.0100    0.0100    0.0100    0.0100    0.0100    0.0100    0.0100    0.0100
    0.0100    0.0100    0.0100    0.0100    0.0100    0.0100    0.0100    0.0100
    0.0100    0.0100    0.0100    0.0100    0.0100    0.0100    0.0100    0.0100
    0.0100    0.0100    0.0100    0.0100    0.0100    0.0100    0.0100    0.0100
    0.0100    0.0100    0.0100    0.0100    0.0100    0.0100    0.0100    0.0100
    0.0100    0.0100    0.0100    0.0100    0.0100    0.0100    0.0100    0.0100
    0.0100    0.0100    0.0100    0.0100    0.0100    0.0100    0.0100    0.0100
    0.0100    0.0100    0.0100    0.0100    0.0100    0.0100    0.0100    0.0100
    0.0100    0.0100    0.0100    0.0100    0.0100    0.0100    0.0100    0.0100
    0.0100    0.0100    0.0100    0.0100    0.0100    0.0100    0.0100    0.0100
    0.0100    0.0100    0.0100    0.0100    0.0100    0.0100    0.0100    0.0100
    0.0100    0.0100    0.0100    0.0100    0.0100    0.0100    0.0100    0.0100
    0.0100    0.0100    0.0100    0.0100    0.0100    0.0100    0.0100    0.0100
    0.0100    0.0100    0.0100    0.0100    0.0100    0.0100    0.0100    0.0100
    0.0100    0.0100    0.0100    0.0100    0.0100    0.0100    0.0100    0.0100
    0.0100    0.0100    0.0100    0.0100    0.0100    0.0100    0.0100    0.0100
    0.0100    0.0100    0.0100    0.0100    0.0100    0.0100    0.0100    0.0100
    0.0100    0.0100    0.0100    0.0100    0.0100    0.0100    0.0100    0.0100
    0.0100    0.0100    0.0100    0.0100    0.0100    0.0100    0.0100    0.0100
    0.0100    0.0100    0.0100    0.0100    0.0100    0.0100    0.0100    0.0100
    0.0100    0.0100    0.0100    0.0100    0.0100    0.0100    0.0100    0.0100
    0.0100    0.0100    0.0100    0.0100    0.0100    0.0100    0.0100    0.0100
    0.0100    0.0100    0.0100    0.0100    0.0100    0.0100    0.0100    0.0100
    0.0100    0.0100    0.0100    0.0100    0.0100    0.0100    0.0100    0.0100
    0.0100    0.0100    0.0100    0.0100    0.0100    0.0100    0.0100    0.0100
    0.0100    0.0100    0.0100    0.0100    0.0100    0.0100    0.0100    0.0100
    0.0100    0.0100    0.0100    0.0100    0.0100    0.0100    0.0100    0.0100
    0.0100    0.0100    0.0100    0.0100    0.0100    0.0100    0.0100    0.0100
    0.0100    0.0100    0.0100    0.0100    0.0100    0.0100    0.0100    0.0100
    0.0100    0.0100    0.0100    0.0100    0.0100    0.0100    0.0100    0.0100
    0.0100    0.0100    0.0100    0.0100    0.0100    0.0100    0.0100    0.0100
    0.0100    0.0100    0.0100    0.0100    0.0100    0.0100    0.0100    0.0100
    0.0100    0.0100    0.0100    0.0100    0.0100    0.0100    0.0100    0.0100
    0.0100    0.0100    0.0100    0.0100    0.0100    0.0100    0.0100    0.0100
    0.0100    0.0100    0.0100    0.0100    0.0100    0.0100    0.0100    0.0100
    0.0100    0.0100    0.0100    0.0100    0.0100    0.0100    0.0100    0.0100
    0.0100    0.0100    0.0100    0.0100    0.0100    0.0100    0.0100    0.0100
    0.0100    0.0100    0.0100    0.0100    0.0100    0.0100    0.0100    0.0100
    0.0100    0.0100    0.0100    0.0100    0.0100    0.0100    0.0100    0.0100
    0.0100    0.0100    0.0100    0.0100    0.0100    0.0100    0.0100    0.0100
    0.0100    0.0100    0.0100    0.0100    0.0100    0.0100    0.0100    0.0100
    0.0100    0.0100    0.0100    0.0100    0.0100    0.0100    0.0100    0.0100
    0.0100    0.0100    0.0100    0.0100    0.0100    0.0100    0.0100    0.0100
    0.0100    0.0100    0.0100    0.0100    0.0100    0.0100    0.0100    0.0100
   </PP_RAB>
 </PP_MESH>
  <PP_LOCAL type="real"  size=" 824" columns="4">
   -3.1382867879E+01   -3.1378961086E+01   -3.1367254003E+01   -3.1347786211E+01
   -3.1320622233E+01   -3.1285849543E+01   -3.1243575963E+01   -3.1193926665E+01
   -3.1137040963E+01   -3.1073069083E+01   -3.1002169067E+01   -3.0924503937E+01
   -3.0840239211E+01   -3.0749540806E+01   -3.0652573351E+01   -3.0549498903E+01
   -3.0440476023E+01   -3.0325659185E+01   -3.0205198461E+01   -3.0079239433E+01
   -2.9947923299E+01   -2.9811387110E+01   -2.9669764119E+01   -2.9523184195E+01
   -2.9371774295E+01   -2.9215658948E+01   -2.9054960754E+01   -2.8889800881E+01
   -2.8720299536E+01   -2.8546576424E+01   -2.8368751175E+01   -2.8186943738E+01
   -2.8001274747E+01   -2.7811865841E+01   -2.7618839965E+01   -2.7422321616E+01
   -2.7222437069E+01   -2.7019314561E+01   -2.6813084443E+01   -2.6603879300E+01
   -2.6391834034E+01   -2.6177085928E+01   -2.5959774666E+01   -2.5740042342E+01
   -2.5518033423E+01   -2.5293894706E+01   -2.5067775240E+01   -2.4839826223E+01
   -2.4610200889E+01   -2.4379054363E+01   -2.4146543506E+01   -2.3912826737E+01
   -2.3678063841E+01   -2.3442415761E+01   -2.3206044379E+01   -2.2969112280E+01
   -2.2731782505E+01   -2.2494218298E+01   -2.2256582839E+01   -2.2019038969E+01
   -2.1781748912E+01   -2.1544873983E+01   -2.1308574296E+01   -2.1073008470E+01
   -2.0838333320E+01   -2.0604703558E+01   -2.0372271482E+01   -2.0141186668E+01
   -1.9911595659E+01   -1.9683641652E+01   -1.9457464191E+01   -1.9233198851E+01
   -1.9010976927E+01   -1.8790925127E+01   -1.8573165260E+01   -1.8357813931E+01
   -1.8144982231E+01   -1.7934775433E+01   -1.7727292689E+01   -1.7522626729E+01
   -1.7320863558E+01   -1.7122082157E+01   -1.6926354185E+01   -1.6733743684E+01
   -1.6544306779E+01   -1.6358091386E+01   -1.6175136914E+01   -1.5995473973E+01
   -1.5819124076E+01   -1.5646099346E+01   -1.5476402219E+01   -1.5310025146E+01
   -1.5146950298E+01   -1.4987149261E+01   -1.4830582738E+01   -1.4677200245E+01
   -1.4526939813E+01   -1.4379727690E+01   -1.4235478114E+01   -1.4094099732E+01
   -1.3955503080E+01   -1.3819602746E+01   -1.3686316674E+01   -1.3555566140E+01
   -1.3427275603E+01   -1.3301372561E+01   -1.3177787417E+01   -1.3056453358E+01
   -1.2937306232E+01   -1.2820284438E+01   -1.2705328816E+01   -1.2592382541E+01
   -1.2481391029E+01   -1.2372301837E+01   -1.2265064512E+01   -1.2159631019E+01
   -1.2055954378E+01   -1.1953986127E+01   -1.1853702364E+01   -1.1755058828E+01
   -1.1657978690E+01   -1.1562441202E+01   -1.1468421369E+01   -1.1375878031E+01
   -1.1284777644E+01   -1.1195087334E+01   -1.1106775129E+01   -1.1019810237E+01
   -1.0934162916E+01   -1.0849804425E+01   -1.0766706961E+01   -1.0684843621E+01
   -1.0604188346E+01   -1.0524715879E+01   -1.0446401720E+01   -1.0369222088E+01
   -1.0293153876E+01   -1.0218174624E+01   -1.0144262476E+01   -1.0071396152E+01
   -9.9995549192E+00   -9.9287185612E+00   -9.8588673560E+00   -9.7899820510E+00
   -9.7220438423E+00   -9.6550343552E+00   -9.5889356272E+00   -9.5237300926E+00
   -9.4594005682E+00   -9.3959302415E+00   -9.3333026598E+00   -9.2715017207E+00
   -9.2105116641E+00   -9.1503170649E+00   -9.0909028272E+00   -9.0322541786E+00
   -8.9743566657E+00   -8.9171961502E+00   -8.8607588050E+00   -8.8050311111E+00
   -8.7499998540E+00   -8.6956521208E+00   -8.6419752960E+00   -8.5889570578E+00
   -8.5365853734E+00   -8.4848484940E+00   -8.4337349498E+00   -8.3832335434E+00
   -8.3333333436E+00   -8.2840236784E+00   -8.2352941266E+00   -8.1871345112E+00
   -8.1395348915E+00   -8.0924855564E+00   -8.0459770183E+00   -8.0000000065E+00
   -7.9545454607E+00   -7.9096045256E+00   -7.8651685449E+00   -7.8212290556E+00
   -7.7777777828E+00   -7.7348066347E+00   -7.6923076970E+00   -7.6502732286E+00
   -7.6086956565E+00   -7.5675675718E+00   -7.5268817245E+00   -7.4866310200E+00
   -7.4468085145E+00   -7.4074074112E+00   -7.3684210563E+00   -7.3298429355E+00
   -7.2916666702E+00   -7.2538860138E+00   -7.2164948487E+00   -7.1794871828E+00
   -7.1428571461E+00   -7.1065989880E+00   -7.0707070739E+00   -7.0351758825E+00
   -7.0000000030E+00   -6.9651741324E+00   -6.9306930723E+00   -6.8965517270E+00
   -6.8627451009E+00   -6.8292682955E+00   -6.7961165076E+00   -6.7632850269E+00
   -6.7307692335E+00   -6.6985645960E+00   -6.6666666693E+00   -6.6350710927E+00
   -6.6037735875E+00   -6.5727699556E+00   -6.5420560773E+00   -6.5116279095E+00
   -6.4814814839E+00   -6.4516129057E+00   -6.4220183510E+00   -6.3926940663E+00
   -6.3636363660E+00   -6.3348416313E+00   -6.3063063086E+00   -6.2780269081E+00
   -6.2500000023E+00   -6.2222222245E+00   -6.1946902677E+00   -6.1674008832E+00
   -6.1403508794E+00   -6.1135371201E+00   -6.0869565239E+00   -6.0606060627E+00
   -6.0344827607E+00   -6.0085836931E+00   -5.9829059849E+00   -5.9574468105E+00
   -5.9322033918E+00   -5.9071729978E+00   -5.8823529431E+00   -5.8577405877E+00
   -5.8333333353E+00   -5.8091286326E+00   -5.7851239688E+00   -5.7613168743E+00
   -5.7377049199E+00   -5.7142857161E+00   -5.6910569124E+00   -5.6680161961E+00
   -5.6451612921E+00   -5.6224899616E+00   -5.6000000018E+00   -5.5776892448E+00
   -5.5555555573E+00   -5.5335968397E+00   -5.5118110253E+00   -5.4901960801E+00
   -5.4687500017E+00   -5.4474708188E+00   -5.4263565908E+00   -5.4054054070E+00
   -5.3846153862E+00   -5.3639846759E+00   -5.3435114520E+00   -5.3231939179E+00
   -5.3030303046E+00   -5.2830188695E+00   -5.2631578963E+00   -5.2434456944E+00
   -5.2238805985E+00   -5.2044609681E+00   -5.1851851867E+00   -5.1660516620E+00
   -5.1470588250E+00   -5.1282051297E+00   -5.1094890525E+00   -5.0909090924E+00
   -5.0724637695E+00   -5.0541516260E+00   -5.0359712244E+00   -5.0179211484E+00
   -5.0000000014E+00   -4.9822064071E+00   -4.9645390085E+00   -4.9469964678E+00
   -4.9295774661E+00   -4.9122807031E+00   -4.8951048964E+00   -4.8780487818E+00
   -4.8611111124E+00   -4.8442906587E+00   -4.8275862082E+00   -4.8109965649E+00
   -4.7945205492E+00   -4.7781569979E+00   -4.7619047632E+00   -4.7457627131E+00
   -4.7297297310E+00   -4.7138047150E+00   -4.6979865784E+00   -4.6822742487E+00
   -4.6666666679E+00   -4.6511627919E+00   -4.6357615906E+00   -4.6204620474E+00
   -4.6052631591E+00   -4.5901639356E+00   -4.5751633998E+00   -4.5602605875E+00
   -4.5454545466E+00   -4.5307443377E+00   -4.5161290334E+00   -4.5016077182E+00
   -4.4871794883E+00   -4.4728434516E+00   -4.4585987272E+00   -4.4444444455E+00
   -4.4303797479E+00   -4.4164037866E+00   -4.4025157243E+00   -4.3887147346E+00
   -4.3750000010E+00   -4.3613707176E+00   -4.3478260880E+00   -4.3343653261E+00
   -4.3209876553E+00   -4.3076923087E+00   -4.2944785286E+00   -4.2813455667E+00
   -4.2682926839E+00   -4.2553191499E+00   -4.2424242434E+00   -4.2296072517E+00
   -4.2168674708E+00   -4.2042042052E+00   -4.1916167674E+00   -4.1791044786E+00
   -4.1666666676E+00   -4.1543026716E+00   -4.1420118352E+00   -4.1297935112E+00
   -4.1176470597E+00   -4.1055718484E+00   -4.0935672524E+00   -4.0816326540E+00
   -4.0697674428E+00   -4.0579710154E+00   -4.0462427754E+00   -4.0345821334E+00
   -4.0229885066E+00   -4.0114613189E+00   -4.0000000009E+00   -3.9886039895E+00
   -3.9772727281E+00   -3.9660056666E+00   -3.9548022607E+00   -3.9436619727E+00
   -3.9325842705E+00   -3.9215686283E+00   -3.9106145260E+00   -3.8997214493E+00
   -3.8888888897E+00   -3.8781163443E+00   -3.8674033157E+00   -3.8567493121E+00
   -3.8461538469E+00   -3.8356164391E+00   -3.8251366128E+00   -3.8147138972E+00
   -3.8043478268E+00   -3.7940379411E+00   -3.7837837845E+00   -3.7735849064E+00
   -3.7634408610E+00   -3.7533512072E+00   -3.7433155088E+00   -3.7333333341E+00
   -3.7234042560E+00   -3.7135278522E+00   -3.7037037044E+00   -3.6939313991E+00
   -3.6842105270E+00   -3.6745406831E+00   -3.6649214667E+00   -3.6553524811E+00
   -3.6458333340E+00   -3.6363636370E+00   -3.6269430059E+00   -3.6175710601E+00
   -3.6082474233E+00   -3.5989717230E+00   -3.5897435904E+00   -3.5805626605E+00
   -3.5714285721E+00   -3.5623409676E+00   -3.5532994930E+00   -3.5443037981E+00
   -3.5353535360E+00   -3.5264483633E+00   -3.5175879403E+00   -3.5087719304E+00
   -3.5000000006E+00   -3.4912718211E+00   -3.4825870653E+00   -3.4739454100E+00
   -3.4653465353E+00   -3.4567901241E+00   -3.4482758627E+00   -3.4398034404E+00
   -3.4313725496E+00   -3.4229828857E+00   -3.4146341469E+00   -3.4063260346E+00
   -3.3980582530E+00   -3.3898305090E+00   -3.3816425126E+00   -3.3734939765E+00
   -3.3653846159E+00   -3.3573141492E+00   -3.3492822972E+00   -3.3412887834E+00
   -3.3333333339E+00   -3.3254156775E+00   -3.3175355456E+00   -3.3096926719E+00
   -3.3018867930E+00   -3.2941176476E+00   -3.2863849770E+00   -3.2786885251E+00
   -3.2710280379E+00   -3.2634032639E+00   -3.2558139540E+00   -3.2482598613E+00
   -3.2407407412E+00   -3.2332563515E+00   -3.2258064521E+00   -3.2183908051E+00
   -3.2110091748E+00   -3.2036613277E+00   -3.1963470324E+00   -3.1890660597E+00
   -3.1818181823E+00   -3.1746031751E+00   -3.1674208149E+00   -3.1602708808E+00
   -3.1531531536E+00   -3.1460674162E+00   -3.1390134534E+00   -3.1319910519E+00
   -3.1250000004E+00   -3.1180400895E+00   -3.1111111115E+00   -3.1042128607E+00
   -3.0973451332E+00   -3.0905077267E+00   -3.0837004409E+00   -3.0769230773E+00
   -3.0701754390E+00   -3.0634573308E+00   -3.0567685594E+00   -3.0501089329E+00
   -3.0434782613E+00   -3.0368763561E+00   -3.0303030307E+00   -3.0237580997E+00
   -3.0172413797E+00   -3.0107526886E+00   -3.0042918459E+00   -2.9978586728E+00
   -2.9914529918E+00   -2.9850746272E+00   -2.9787234046E+00   -2.9723991511E+00
   -2.9661016953E+00   -2.9598308672E+00   -2.9535864983E+00   -2.9473684214E+00
   -2.9411764709E+00   -2.9350104825E+00   -2.9288702932E+00   -2.9227557415E+00
   -2.9166666670E+00   -2.9106029109E+00   -2.9045643157E+00   -2.8985507250E+00
   -2.8925619838E+00   -2.8865979385E+00   -2.8806584365E+00   -2.8747433268E+00
   -2.8688524593E+00   -2.8629856854E+00   -2.8571428575E+00   -2.8513238292E+00
   -2.8455284556E+00   -2.8397565926E+00   -2.8340080975E+00   -2.8282828286E+00
   -2.8225806455E+00   -2.8169014088E+00   -2.8112449802E+00   -2.8056112227E+00
   -2.8000000003E+00   -2.7944111779E+00   -2.7888446218E+00   -2.7833001991E+00
   -2.7777777781E+00   -2.7722772280E+00   -2.7667984193E+00   -2.7613412232E+00
   -2.7559055121E+00   -2.7504911594E+00   -2.7450980395E+00   -2.7397260277E+00
   -2.7343750003E+00   -2.7290448346E+00   -2.7237354088E+00   -2.7184466022E+00
   -2.7131782948E+00   -2.7079303678E+00   -2.7027027030E+00   -2.6974951833E+00
   -2.6923076926E+00   -2.6871401154E+00   -2.6819923374E+00   -2.6768642450E+00
   -2.6717557254E+00   -2.6666666669E+00   -2.6615969584E+00   -2.6565464898E+00
   -2.6515151517E+00   -2.6465028358E+00   -2.6415094342E+00   -2.6365348401E+00
   -2.6315789476E+00   -2.6266416513E+00   -2.6217228467E+00   -2.6168224301E+00