<UPF version="2.0.1">
  <PP_INFO>

 This pseudopotential file has been produced using the code
 ONCVPSP  (Optimized Norm-Conservinng Vanderbilt PSeudopotential)
 scalar-relativistic version 3.3.1 12/12/2017 by D. R. Hamann
 The code is available through a link at URL www.mat-simresearch.com.
 Documentation with the package provides a full discription of the
 input data below.


 While it is not required under the terms of the GNU GPL, it is
 suggested that you cite D. R. Hamann, Phys. Rev. B 88, 085117 (2013)
 in any publication using these pseudopotentials.

    <PP_INPUTFILE>
# ATOM AND REFERENCE CONFIGURATION
# atsym  z   nc   nv     iexc    psfile
  F  9.00    1    2       3      upf
#
#   n    l    f        energy (Ha)
    1    0    2.00
    2    0    2.00
    2    1    5.00
#
# PSEUDOPOTENTIAL AND OPTIMIZATION
# lmax
    1
#
#   l,   rc,      ep,       ncon, nbas, qcut
    0   1.56741  -1.08950    5    8   8.73495
    1   1.64712  -0.41507    5    8   8.69707
#
# LOCAL POTENTIAL
# lloc, lpopt,  rc(5),   dvloc0
    4    5   0.96222      0.00000
#
# VANDERBILT-KLEINMAN-BYLANDER PROJECTORs
# l, nproj, debl
    0    2   1.51125
    1    2   1.53167
#
# MODEL CORE CHARGE
# icmod, fcfact, rcfact
    0   0.00000   0.00000
#
# LOG DERIVATIVE ANALYSIS
# epsh1, epsh2, depsh
   -5.00    3.00    0.02
#
# OUTPUT GRID
# rlmax, drl
    6.00    0.01
#
# TEST CONFIGURATIONS
# ncnf
    0
# nvcnf
#   n    l    f
    </PP_INPUTFILE>
  </PP_INFO>
  <!--                               -->
  <!-- END OF HUMAN READABLE SECTION -->
  <!--                               -->
    <PP_HEADER
       generated="Generated using ONCVPSP code by D. R. Hamann"
       author="anonymous"
       date="220413"
       comment=""
       element="F "
       pseudo_type="NC"
       relativistic="scalar"
       is_ultrasoft="F"
       is_paw="F"
       is_coulomb="F"
       has_so="F"
       has_wfc="F"
       has_gipaw="F"
       core_correction="F"
       functional="PZ"
       z_valence="    7.00"
       total_psenergy="  -4.73440210038E+01"
       rho_cutoff="   8.23000000000E+00"
       l_max="1"
       l_local="-1"
       mesh_size="   824"
       number_of_wfc="2"
       number_of_proj="4"/>
 <PP_MESH>
   <PP_R type="real"  size=" 824" columns="8">
    0.0000    0.0100    0.0200    0.0300    0.0400    0.0500    0.0600    0.0700
    0.0800    0.0900    0.1000    0.1100    0.1200    0.1300    0.1400    0.1500
    0.1600    0.1700    0.1800    0.1900    0.2000    0.2100    0.2200    0.2300
    0.2400    0.2500    0.2600    0.2700    0.2800    0.2900    0.3000    0.3100
    0.3200    0.3300    0.3400    0.3500    0.3600    0.3700    0.3800    0.3900
    0.4000    0.4100    0.4200    0.4300    0.4400    0.4500    0.4600    0.4700
    0.4800    0.4900    0.5000    0.5100    0.5200    0.5300    0.5400    0.5500
    0.5600    0.5700    0.5800    0.5900    0.6000    0.6100    0.6200    0.6300
    0.6400    0.6500    0.6600    0.6700    0.6800    0.6900    0.7000    0.7100
    0.7200    0.7300    0.7400    0.7500    0.7600    0.7700    0.7800    0.7900
    0.8000    0.8100    0.8200    0.8300    0.8400    0.8500    0.8600    0.8700
    0.8800    0.8900    0.9000    0.9100    0.9200    0.9300    0.9400    0.9500
    0.9600    0.9700    0.9800    0.9900    1.0000    1.0100    1.0200    1.0300
    1.0400    1.0500    1.0600    1.0700    1.0800    1.0900    1.1000    1.1100
    1.1200    1.1300    1.1400    1.1500    1.1600    1.1700    1.1800    1.1900
    1.2000    1.2100    1.2200    1.2300    1.2400    1.2500    1.2600    1.2700
    1.2800    1.2900    1.3000    1.3100    1.3200    1.3300    1.3400    1.3500
    1.3600    1.3700    1.3800    1.3900    1.4000    1.4100    1.4200    1.4300
    1.4400    1.4500    1.4600    1.4700    1.4800    1.4900    1.5000    1.5100
    1.5200    1.5300    1.5400    1.5500    1.5600    1.5700    1.5800    1.5900
    1.6000    1.6100    1.6200    1.6300    1.6400    1.6500    1.6600    1.6700
    1.6800    1.6900    1.7000    1.7100    1.7200    1.7300    1.7400    1.7500
    1.7600    1.7700    1.7800    1.7900    1.8000    1.8100    1.8200    1.8300
    1.8400    1.8500    1.8600    1.8700    1.8800    1.8900    1.9000    1.9100
    1.9200    1.9300    1.9400    1.9500    1.9600    1.9700    1.9800    1.9900
    2.0000    2.0100    2.0200    2.0300    2.0400    2.0500    2.0600    2.0700
    2.0800    2.0900    2.1000    2.1100    2.1200    2.1300    2.1400    2.1500
    2.1600    2.1700    2.1800    2.1900    2.2000    2.2100    2.2200    2.2300
    2.2400    2.2500    2.2600    2.2700    2.2800    2.2900    2.3000    2.3100
    2.3200    2.3300    2.3400    2.3500    2.3600    2.3700    2.3800    2.3900
    2.4000    2.4100    2.4200    2.4300    2.4400    2.4500    2.4600    2.4700
    2.4800    2.4900    2.5000    2.5100    2.5200    2.5300    2.5400    2.5500
    2.5600    2.5700    2.5800    2.5900    2.6000    2.6100    2.6200    2.6300
    2.6400    2.6500    2.6600    2.6700    2.6800    2.6900    2.7000    2.7100
    2.7200    2.7300    2.7400    2.7500    2.7600    2.7700    2.7800    2.7900
    2.8000    2.8100    2.8200    2.8300    2.8400    2.8500    2.8600    2.8700
    2.8800    2.8900    2.9000    2.9100    2.9200    2.9300    2.9400    2.9500
    2.9600    2.9700    2.9800    2.9900    3.0000    3.0100    3.0200    3.0300
    3.0400    3.0500    3.0600    3.0700    3.0800    3.0900    3.1000    3.1100
    3.1200    3.1300    3.1400    3.1500    3.1600    3.1700    3.1800    3.1900
    3.2000    3.2100    3.2200    3.2300    3.2400    3.2500    3.2600    3.2700
    3.2800    3.2900    3.3000    3.3100    3.3200    3.3300    3.3400    3.3500
    3.3600    3.3700    3.3800    3.3900    3.4000    3.4100    3.4200    3.4300
    3.4400    3.4500    3.4600    3.4700    3.4800    3.4900    3.5000    3.5100
    3.5200    3.5300    3.5400    3.5500    3.5600    3.5700    3.5800    3.5900
    3.6000    3.6100    3.6200    3.6300    3.6400    3.6500    3.6600    3.6700
    3.6800    3.6900    3.7000    3.7100    3.7200    3.7300    3.7400    3.7500
    3.7600    3.7700    3.7800    3.7900    3.8000    3.8100    3.8200    3.8300
    3.8400    3.8500    3.8600    3.8700    3.8800    3.8900    3.9000    3.9100
    3.9200    3.9300    3.9400    3.9500    3.9600    3.9700    3.9800    3.9900
    4.0000    4.0100    4.0200    4.0300    4.0400    4.0500    4.0600    4.0700
    4.0800    4.0900    4.1000    4.1100    4.1200    4.1300    4.1400    4.1500
    4.1600    4.1700    4.1800    4.1900    4.2000    4.2100    4.2200    4.2300
    4.2400    4.2500    4.2600    4.2700    4.2800    4.2900    4.3000    4.3100
    4.3200    4.3300    4.3400    4.3500    4.3600    4.3700    4.3800    4.3900
    4.4000    4.4100    4.4200    4.4300    4.4400    4.4500    4.4600    4.4700
    4.4800    4.4900    4.5000    4.5100    4.5200    4.5300    4.5400    4.5500
    4.5600    4.5700    4.5800    4.5900    4.6000    4.6100    4.6200    4.6300
    4.6400    4.6500    4.6600    4.6700    4.6800    4.6900    4.7000    4.7100
    4.7200    4.7300    4.7400    4.7500    4.7600    4.7700    4.7800    4.7900
    4.8000    4.8100    4.8200    4.8300    4.8400    4.8500    4.8600    4.8700
    4.8800    4.8900    4.9000    4.9100    4.9200    4.9300    4.9400    4.9500
    4.9600    4.9700    4.9800    4.9900    5.0000    5.0100    5.0200    5.0300
    5.0400    5.0500    5.0600    5.0700    5.0800    5.0900    5.1000    5.1100
    5.1200    5.1300    5.1400    5.1500    5.1600    5.1700    5.1800    5.1900
    5.2000    5.2100    5.2200    5.2300    5.2400    5.2500    5.2600    5.2700
    5.2800    5.2900    5.3000    5.3100    5.3200    5.3300    5.3400    5.3500
    5.3600    5.3700    5.3800    5.3900    5.4000    5.4100    5.4200    5.4300
    5.4400    5.4500    5.4600    5.4700    5.4800    5.4900    5.5000    5.5100
    5.5200    5.5300    5.5400    5.5500    5.5600    5.5700    5.5800    5.5900
    5.6000    5.6100    5.6200    5.6300    5.6400    5.6500    5.6600    5.6700
    5.6800    5.6900    5.7000    5.7100    5.7200    5.7300    5.7400    5.7500
    5.7600    5.7700    5.7800    5.7900    5.8000    5.8100    5.8200    5.8300
    5.8400    5.8500    5.8600    5.8700    5.8800    5.8900    5.9000    5.9100
    5.9200    5.9300    5.9400    5.9500    5.9600    5.9700    5.9800    5.9900
    6.0000    6.0100    6.0200    6.0300    6.0400    6.0500    6.0600    6.0700
    6.0800    6.0900    6.1000    6.1100    6.1200    6.1300    6.1400    6.1500
    6.1600    6.1700    6.1800    6.1900    6.2000    6.2100    6.2200    6.2300
    6.2400    6.2500    6.2600    6.2700    6.2800    6.2900    6.3000    6.3100
    6.3200    6.3300    6.3400    6.3500    6.3600    6.3700    6.3800    6.3900
    6.4000    6.4100    6.4200    6.4300    6.4400    6.4500    6.4600    6.4700
    6.4800    6.4900    6.5000    6.5100    6.5200    6.5300    6.5400    6.5500
    6.5600    6.5700    6.5800    6.5900    6.6000    6.6100    6.6200    6.6300
    6.6400    6.6500    6.6600    6.6700    6.6800    6.6900    6.7000    6.7100
    6.7200    6.7300    6.7400    6.7500    6.7600    6.7700    6.7800    6.7900
    6.8000    6.8100    6.8200    6.8300    6.8400    6.8500    6.8600    6.8700
    6.8800    6.8900    6.9000    6.9100    6.9200    6.9300    6.9400    6.9500
    6.9600    6.9700    6.9800    6.9900    7.0000    7.0100    7.0200    7.0300
    7.0400    7.0500    7.0600    7.0700    7.0800    7.0900    7.1000    7.1100
    7.1200    7.1300    7.1400    7.1500    7.1600    7.1700    7.1800    7.1900
    7.2000    7.2100    7.2200    7.2300    7.2400    7.2500    7.2600    7.2700
    7.2800    7.2900    7.3000    7.3100    7.3200    7.3300    7.3400    7.3500
    7.3600    7.3700    7.3800    7.3900    7.4000    7.4100    7.4200    7.4300
    7.4400    7.4500    7.4600    7.4700    7.4800    7.4900    7.5000    7.5100
    7.5200    7.5300    7.5400    7.5500    7.5600    7.5700    7.5800    7.5900
    7.6000    7.6100    7.6200    7.6300    7.6400    7.6500    7.6600    7.6700
    7.6800    7.6900    7.7000    7.7100    7.7200    7.7300    7.7400    7.7500
    7.7600    7.7700    7.7800    7.7900    7.8000    7.8100    7.8200    7.8300
    7.8400    7.8500    7.8600    7.8700    7.8800    7.8900    7.9000    7.9100
    7.9200    7.9300    7.9400    7.9500    7.9600    7.9700    7.9800    7.9900
    8.0000    8.0100    8.0200    8.0300    8.0400    8.0500    8.0600    8.0700
    8.0800    8.0900    8.1000    8.1100    8.1200    8.1300    8.1400    8.1500
    8.1600    8.1700    8.1800    8.1900    8.2000    8.2100    8.2200    8.2300
   </PP_R>
   <PP_RAB type="real"  size=" 824" columns="8">
    0.0100    0.0100    0.0100    0.0100    0.0100    0.0100    0.0100    0.0100
    0.0100    0.0100    0.0100    0.0100    0.0100    0.0100    0.0100    0.0100
    0.0100    0.0100    0.0100    0.0100    0.0100    0.0100    0.0100    0.0100
    0.0100    0.0100    0.0100    0.0100    0.0100    0.0100    0.0100    0.0100
    0.0100    0.0100    0.0100    0.0100    0.0100    0.0100    0.0100    0.0100
    0.0100    0.0100    0.0100    0.0100    0.0100    0.0100    0.0100    0.0100
    0.0100    0.0100    0.0100    0.0100    0.0100    0.0100    0.0100    0.0100
    0.0100    0.0100    0.0100    0.0100    0.0100    0.0100    0.0100    0.0100
    0.0100    0.0100    0.0100    0.0100    0.0100    0.0100    0.0100    0.0100
    0.0100    0.0100    0.0100    0.0100    0.0100    0.0100    0.0100    0.0100
    0.0100    0.0100    0.0100    0.0100    0.0100    0.0100    0.0100    0.0100
    0.0100    0.0100    0.0100    0.0100    0.0100    0.0100    0.0100    0.0100
    0.0100    0.0100    0.0100    0.0100    0.0100    0.0100    0.0100    0.0100
    0.0100    0.0100    0.0100    0.0100    0.0100    0.0100    0.0100    0.0100
    0.0100    0.0100    0.0100    0.0100    0.0100    0.0100    0.0100    0.0100
    0.0100    0.0100    0.0100    0.0100    0.0100    0.0100    0.0100    0.0100
    0.0100    0.0100    0.0100    0.0100    0.0100    0.0100    0.0100    0.0100
    0.0100    0.0100    0.0100    0.0100    0.0100    0.0100    0.0100    0.0100
    0.0100    0.0100    0.0100    0.0100    0.0100    0.0100    0.0100    0.0100
    0.0100    0.0100    0.0100    0.0100    0.0100    0.0100    0.0100    0.0100
    0.0100    0.0100    0.0100    0.0100    0.0100    0.0100    0.0100    0.0100
    0.0100    0.0100    0.0100    0.0100    0.0100    0.0100    0.0100    0.0100
    0.0100    0.0100    0.0100    0.0100    0.0100    0.0100    0.0100    0.0100
    0.0100    0.0100    0.0100    0.0100    0.0100    0.0100    0.0100    0.0100
    0.0100    0.0100    0.0100    0.0100    0.0100    0.0100    0.0100    0.0100
    0.0100    0.0100    0.0100    0.0100    0.0100    0.0100    0.0100    0.0100
    0.0100    0.0100    0.0100    0.0100    0.0100    0.0100    0.0100    0.0100
    0.0100    0.0100    0.0100    0.0100    0.0100    0.0100    0.0100    0.0100
    0.0100    0.0100    0.0100    0.0100    0.0100    0.0100    0.0100    0.0100
    0.0100    0.0100    0.0100    0.0100    0.0100    0.0100    0.0100    0.0100
    0.0100    0.0100    0.0100    0.0100    0.0100    0.0100    0.0100    0.0100
    0.0100    0.0100    0.0100    0.0100    0.0100    0.0100    0.0100    0.0100
    0.0100    0.0100    0.0100    0.0100    0.0100    0.0100    0.0100    0.0100
    0.0100    0.0100    0.0100    0.0100    0.0100    0.0100    0.0100    0.0100
    0.0100    0.0100    0.0100    0.0100    0.0100    0.0100    0.0100    0.0100
    0.0100    0.0100    0.0100    0.0100    0.0100    0.0100    0.0100    0.0100
    0.0100    0.0100    0.0100    0.0100    0.0100    0.0100    0.0100    0.0100
    0.0100    0.0100    0.0100    0.0100    0.0100    0.0100    0.0100    0.0100
    0.0100    0.0100    0.0100    0.0100    0.0100    0.0100    0.0100    0.0100
    0.0100    0.0100    0.0100    0.0100    0.0100    0.0100    0.0100    0.0100
    0.0100    0.0100    0.0100    0.0100    0.0100    0.0100    0.0100    0.0100
    0.0100    0.0100    0.0100    0.0100    0.0100    0.0100    0.0100    0.0100
    0.0100    0.0100    0.0100    0.0100    0.0100    0.0100    0.0100    0.0100
    0.0100    0.0100    0.0100    0.0100    0.0100    0.0100    0.0100    0.0100
    0.0100    0.0100    0.0100    0.0100    0.0100    0.0100    0.0100    0.0100
    0.0100    0.0100    0.0100    0.0100    0.0100    0.0100    0.0100    0.0100
    0.0100    0.0100    0.0100    0.0100    0.0100    0.0100    0.0100    0.0100
    0.0100    0.0100    0.0100    0.0100    0.0100    0.0100    0.0100    0.0100
    0.0100    0.0100    0.0100    0.0100    0.0100    0.0100    0.0100    0.0100
    0.0100    0.0100    0.0100    0.0100    0.0100    0.0100    0.0100    0.0100
    0.0100    0.0100    0.0100    0.0100    0.0100    0.0100    0.0100    0.0100
    0.0100    0.0100    0.0100    0.0100    0.0100    0.0100    0.0100    0.0100
    0.0100    0.0100    0.0100    0.0100    0.0100    0.0100    0.0100    0.0100
    0.0100    0.0100    0.0100    0.0100    0.0100    0.0100    0.0100    0.0100
    0.0100    0.0100    0.0100    0.0100    0.0100    0.0100    0.0100    0.0100
    0.0100    0.0100    0.0100    0.0100    0.0100    0.0100    0.0100    0.0100
    0.0100    0.0100    0.0100    0.0100    0.0100    0.0100    0.0100    0.0100
    0.0100    0.0100    0.0100    0.0100    0.0100    0.0100    0.0100    0.0100
    0.0100    0.0100    0.0100    0.0100    0.0100    0.0100    0.0100    0.0100
    0.0100    0.0100    0.0100    0.0100    0.0100    0.0100    0.0100    0.0100
    0.0100    0.0100    0.0100    0.0100    0.0100    0.0100    0.0100    0.0100
    0.0100    0.0100    0.0100    0.0100    0.0100    0.0100    0.0100    0.0100
    0.0100    0.0100    0.0100    0.0100    0.0100    0.0100    0.0100    0.0100
    0.0100    0.0100    0.0100    0.0100    0.0100    0.0100    0.0100    0.0100
    0.0100    0.0100    0.0100    0.0100    0.0100    0.0100    0.0100    0.0100
    0.0100    0.0100    0.0100    0.0100    0.0100    0.0100    0.0100    0.0100
    0.0100    0.0100    0.0100    0.0100    0.0100    0.0100    0.0100    0.0100
    0.0100    0.0100    0.0100    0.0100    0.0100    0.0100    0.0100    0.0100
    0.0100    0.0100    0.0100    0.0100    0.0100    0.0100    0.0100    0.0100
    0.0100    0.0100    0.0100    0.0100    0.0100    0.0100    0.0100    0.0100
    0.0100    0.0100    0.0100    0.0100    0.0100    0.0100    0.0100    0.0100
    0.0100    0.0100    0.0100    0.0100    0.0100    0.0100    0.0100    0.0100
    0.0100    0.0100    0.0100    0.0100    0.0100    0.0100    0.0100    0.0100
    0.0100    0.0100    0.0100    0.0100    0.0100    0.0100    0.0100    0.0100
    0.0100    0.0100    0.0100    0.0100    0.0100    0.0100    0.0100    0.0100
    0.0100    0.0100    0.0100    0.0100    0.0100    0.0100    0.0100    0.0100
    0.0100    0.0100    0.0100    0.0100    0.0100    0.0100    0.0100    0.0100
    0.0100    0.0100    0.0100    0.0100    0.0100    0.0100    0.0100    0.0100
    0.0100    0.0100    0.0100    0.0100    0.0100    0.0100    0.0100    0.0100
    0.0100    0.0100    0.0100    0.0100    0.0100    0.0100    0.0100    0.0100
    0.0100    0.0100    0.0100    0.0100    0.0100    0.0100    0.0100    0.0100
    0.0100    0.0100    0.0100    0.0100    0.0100    0.0100    0.0100    0.0100
    0.0100    0.0100    0.0100    0.0100    0.0100    0.0100    0.0100    0.0100
    0.0100    0.0100    0.0100    0.0100    0.0100    0.0100    0.0100    0.0100
    0.0100    0.0100    0.0100    0.0100    0.0100    0.0100    0.0100    0.0100
    0.0100    0.0100    0.0100    0.0100    0.0100    0.0100    0.0100    0.0100
    0.0100    0.0100    0.0100    0.0100    0.0100    0.0100    0.0100    0.0100
    0.0100    0.0100    0.0100    0.0100    0.0100    0.0100    0.0100    0.0100
    0.0100    0.0100    0.0100    0.0100    0.0100    0.0100    0.0100    0.0100
    0.0100    0.0100    0.0100    0.0100    0.0100    0.0100    0.0100    0.0100
    0.0100    0.0100    0.0100    0.0100    0.0100    0.0100    0.0100    0.0100
    0.0100    0.0100    0.0100    0.0100    0.0100    0.0100    0.0100    0.0100
    0.0100    0.0100    0.0100    0.0100    0.0100    0.0100    0.0100    0.0100
    0.0100    0.0100    0.0100    0.0100    0.0100    0.0100    0.0100    0.0100
    0.0100    0.0100    0.0100    0.0100    0.0100    0.0100    0.0100    0.0100
    0.0100    0.0100    0.0100    0.0100    0.0100    0.0100    0.0100    0.0100
    0.0100    0.0100    0.0100    0.0100    0.0100    0.0100    0.0100    0.0100
    0.0100    0.0100    0.0100    0.0100    0.0100    0.0100    0.0100    0.0100
    0.0100    0.0100    0.0100    0.0100    0.0100    0.0100    0.0100    0.0100
    0.0100    0.0100    0.0100    0.0100    0.0100    0.0100    0.0100    0.0100
    0.0100    0.0100    0.0100    0.0100    0.0100    0.0100    0.0100    0.0100
    0.0100    0.0100    0.0100    0.0100    0.0100    0.0100    0.0100    0.0100
    0.0100    0.0100    0.0100    0.0100    0.0100    0.0100    0.0100    0.0100
   </PP_RAB>
 </PP_MESH>
  <PP_LOCAL type="real"  size=" 824" columns="4">
   -3.1381767755E+01   -3.1377866418E+01   -3.1366175571E+01   -3.1346734393E+01
   -3.1319606768E+01   -3.1284879323E+01   -3.1242658873E+01   -3.1193069471E+01
   -3.1136249251E+01   -3.1072347244E+01   -3.1001520318E+01   -3.0923930386E+01
   -3.0839741936E+01   -3.0749119953E+01   -3.0652228249E+01   -3.0549228172E+01
   -3.0440277687E+01   -3.0325530778E+01   -3.0205137123E+01   -3.0079242001E+01
   -2.9947986384E+01   -2.9811507167E+01   -2.9669937503E+01   -2.9523407218E+01
   -2.9372043261E+01   -2.9215970191E+01   -2.9055310669E+01   -2.8890185941E+01
   -2.8720716314E+01   -2.8547021609E+01   -2.8369221578E+01   -2.8187436304E+01
   -2.8001786558E+01   -2.7812394122E+01   -2.7619382085E+01   -2.7422875088E+01
   -2.7222999552E+01   -2.7019883859E+01   -2.6813658502E+01   -2.6604456205E+01
   -2.6392412009E+01   -2.6177663331E+01   -2.5960349989E+01   -2.5740614201E+01
   -2.5518600561E+01   -2.5294455987E+01   -2.5068329643E+01   -2.4840372840E+01
   -2.4610738920E+01   -2.4379583112E+01   -2.4147062376E+01   -2.3913335225E+01
   -2.3678561536E+01   -2.3442902337E+01   -2.3206519589E+01   -2.2969575955E+01
   -2.2732234546E+01   -2.2494658673E+01   -2.2257011577E+01   -2.2019456157E+01
   -2.1782154687E+01   -2.1545268529E+01   -2.1308957841E+01   -2.1073381278E+01
   -2.0838695688E+01   -2.0605055812E+01   -2.0372613971E+01   -2.0141519760E+01
   -1.9911919738E+01   -1.9683957114E+01   -1.9457771437E+01   -1.9233498286E+01
   -1.9011268957E+01   -1.8791210155E+01   -1.8573443681E+01   -1.8358086132E+01
   -1.8145248585E+01   -1.7935036300E+01   -1.7727548412E+01   -1.7522877634E+01
   -1.7321109948E+01   -1.7122324316E+01   -1.6926592374E+01   -1.6733978141E+01
   -1.6544537718E+01   -1.6358318997E+01   -1.6175361364E+01   -1.5995695405E+01
   -1.5819342610E+01   -1.5646315082E+01   -1.5476615235E+01   -1.5310235501E+01
   -1.5147158033E+01   -1.4987354404E+01   -1.4830785301E+01   -1.4677400231E+01
   -1.4527137216E+01   -1.4379922500E+01   -1.4235670318E+01   -1.4094289319E+01
   -1.3955690037E+01   -1.3819787062E+01   -1.3686498339E+01   -1.3555745144E+01
   -1.3427451936E+01   -1.3301546215E+01   -1.3177958384E+01   -1.3056621633E+01
   -1.2937471810E+01   -1.2820447316E+01   -1.2705488990E+01   -1.2592540013E+01
   -1.2481545799E+01   -1.2372453796E+01   -1.2265214983E+01   -1.2159775857E+01
   -1.2056094292E+01   -1.1954164855E+01   -1.1853889091E+01   -1.1755195778E+01
   -1.1658106498E+01   -1.1562573363E+01   -1.1468549436E+01   -1.1376003474E+01
   -1.1284900662E+01   -1.1195207847E+01   -1.1106893168E+01   -1.1019925832E+01
   -1.0934276101E+01   -1.0849915234E+01   -1.0766815430E+01   -1.0684949787E+01
   -1.0604292247E+01   -1.0524817554E+01   -1.0446501210E+01   -1.0369319432E+01
   -1.0293249118E+01   -1.0218267805E+01   -1.0144353638E+01   -1.0071485339E+01
   -9.9996421727E+00   -9.9288039250E+00   -9.8589508732E+00   -9.7900637643E+00
   -9.7221237942E+00   -9.6551125879E+00   -9.5890121826E+00   -9.5238050119E+00
   -9.4594738921E+00   -9.3960020100E+00   -9.3333729121E+00   -9.2715704955E+00
   -9.2105789991E+00   -9.1503829972E+00   -9.0909673928E+00   -9.0323174127E+00
   -8.9744186027E+00   -8.9172568236E+00   -8.8608182474E+00   -8.8050893541E+00
   -8.7500569285E+00   -8.6957080569E+00   -8.6420301230E+00   -8.5890108042E+00
   -8.5366380669E+00   -8.4849001613E+00   -8.4337856168E+00   -8.3832832351E+00
   -8.3333820849E+00   -8.2840714934E+00   -8.2353410392E+00   -8.1871805445E+00
   -8.1395800679E+00   -8.0925298977E+00   -8.0460205455E+00   -8.0000427400E+00
   -7.9545874205E+00   -7.9096457309E+00   -7.8652090143E+00   -7.8212688073E+00
   -7.7778168344E+00   -7.7348450032E+00   -7.6923453990E+00   -7.6503102802E+00
   -7.6087320734E+00   -7.5676033690E+00   -7.5269169169E+00   -7.4866656218E+00
   -7.4468425397E+00   -7.4074408732E+00   -7.3684539683E+00   -7.3298753103E+00
   -7.2916985201E+00   -7.2539173509E+00   -7.2165256847E+00   -7.1795175291E+00
   -7.1428870137E+00   -7.1066283877E+00   -7.0707360162E+00   -7.0352043776E+00
   -7.0000280608E+00   -6.9652017624E+00   -6.9307202840E+00   -6.8965785295E+00
   -6.8627715030E+00   -6.8292943059E+00   -6.7961421348E+00   -6.7633102789E+00
   -6.7307941183E+00   -6.6985891214E+00   -6.6666908429E+00   -6.6350949217E+00
   -6.6037970792E+00   -6.5727931169E+00   -6.5420789150E+00   -6.5116504302E+00
   -6.4815036942E+00   -6.4516348117E+00   -6.4220399589E+00   -6.3927153821E+00
   -6.3636573954E+00   -6.3348623801E+00   -6.3063267823E+00   -6.2780471120E+00
   -6.2500199417E+00   -6.2222419045E+00   -6.1947096934E+00   -6.1674200594E+00
   -6.1403698108E+00   -6.1135558114E+00   -6.0869749797E+00   -6.0606242874E+00
   -6.0345007585E+00   -6.0086014682E+00   -5.9829235416E+00   -5.9574641527E+00
   -5.9322205234E+00   -5.9071899225E+00   -5.8823696648E+00   -5.8577571100E+00
   -5.8333496617E+00   -5.8091447667E+00   -5.7851399139E+00   -5.7613326337E+00
   -5.7377204969E+00   -5.7143011139E+00   -5.6910721340E+00   -5.6680312446E+00
   -5.6451761704E+00   -5.6225046726E+00   -5.6000145483E+00   -5.5777036296E+00
   -5.5555697831E+00   -5.5336109091E+00   -5.5118249410E+00   -5.4902098445E+00
   -5.4687636173E+00   -5.4474842881E+00   -5.4263699161E+00   -5.4054185906E+00
   -5.3846284304E+00   -5.3639975829E+00   -5.3435242239E+00   -5.3232065569E+00
   -5.3030428127E+00   -5.2830312488E+00   -5.2631701488E+00   -5.2434578221E+00
   -5.2238926032E+00   -5.2044728517E+00   -5.1851969510E+00   -5.1660633089E+00
   -5.1470703562E+00   -5.1282165469E+00   -5.1095003574E+00   -5.0909202866E+00
   -5.0724748548E+00   -5.0541626037E+00   -5.0359820963E+00   -5.0179319159E+00
   -5.0000106661E+00   -4.9822169703E+00   -4.9645494718E+00   -4.9470068325E+00
   -4.9295877337E+00   -4.9122908749E+00   -4.8951149737E+00   -4.8780587659E+00
   -4.8611210046E+00   -4.8443004603E+00   -4.8275959203E+00   -4.8110061887E+00
   -4.7945300861E+00   -4.7781664489E+00   -4.7619141294E+00   -4.7457719958E+00
   -4.7297389311E+00   -4.7138138338E+00   -4.6979956168E+00   -4.6822832078E+00
   -4.6666755486E+00   -4.6511715953E+00   -4.6357703177E+00   -4.6204706992E+00
   -4.6052717365E+00   -4.5901724395E+00   -4.5751718313E+00   -4.5602689472E+00
   -4.5454628356E+00   -4.5307525568E+00   -4.5161371835E+00   -4.5016158001E+00
   -4.4871875029E+00   -4.4728513996E+00   -4.4586066095E+00   -4.4444522628E+00
   -4.4303875010E+00   -4.4164114762E+00   -4.4025233513E+00   -4.3887222997E+00
   -4.3750075049E+00   -4.3613781609E+00   -4.3478334715E+00   -4.3343726505E+00
   -4.3209949212E+00   -4.3076995168E+00   -4.2944856796E+00   -4.2813526612E+00
   -4.2682997225E+00   -4.2553261333E+00   -4.2424311722E+00   -4.2296141265E+00
   -4.2168742922E+00   -4.2042109736E+00   -4.1916234836E+00   -4.1791111431E+00
   -4.1666732810E+00   -4.1543092343E+00   -4.1420183480E+00   -4.1297999745E+00
   -4.1176534740E+00   -4.1055782142E+00   -4.0935735702E+00   -4.0816389243E+00
   -4.0697736661E+00   -4.0579771923E+00   -4.0462489064E+00   -4.0345882188E+00
   -4.0229945469E+00   -4.0114673146E+00   -4.0000059524E+00   -3.9886098973E+00
   -3.9772785928E+00   -3.9660114884E+00   -3.9548080401E+00   -3.9436677101E+00
   -3.9325899664E+00   -3.9215742830E+00   -3.9106201399E+00   -3.8997270229E+00
   -3.8888944234E+00   -3.8781218384E+00   -3.8674087706E+00   -3.8567547282E+00
   -3.8461592246E+00   -3.8356217787E+00   -3.8251419147E+00   -3.8147191617E+00
   -3.8043530544E+00   -3.7940431320E+00   -3.7837889391E+00   -3.7735900250E+00
   -3.7634459439E+00   -3.7533562548E+00   -3.7433205214E+00   -3.7333383120E+00
   -3.7234091996E+00   -3.7135327617E+00   -3.7037085803E+00   -3.6939362415E+00
   -3.6842153363E+00   -3.6745454596E+00   -3.6649262106E+00   -3.6553571928E+00
   -3.6458380137E+00   -3.6363682851E+00   -3.6269476225E+00   -3.6175756456E+00
   -3.6082519780E+00   -3.5989762471E+00   -3.5897480842E+00   -3.5805671242E+00
   -3.5714330060E+00   -3.5623453719E+00   -3.5533038681E+00   -3.5443081442E+00
   -3.5353578532E+00   -3.5264526521E+00   -3.5175922007E+00   -3.5087761628E+00
   -3.5000042051E+00   -3.4912759979E+00   -3.4825912148E+00   -3.4739495324E+00
   -3.4653506307E+00   -3.4567941928E+00   -3.4482799049E+00   -3.4398074564E+00
   -3.4313765395E+00   -3.4229868498E+00   -3.4146380854E+00   -3.4063299477E+00
   -3.3980621408E+00   -3.3898343719E+00   -3.3816463506E+00   -3.3734977899E+00
   -3.3653884049E+00   -3.3573179140E+00   -3.3492860379E+00   -3.3412925002E+00
   -3.3333370271E+00   -3.3254193472E+00   -3.3175391920E+00   -3.3096962953E+00
   -3.3018903934E+00   -3.2941212252E+00   -3.2863885321E+00   -3.2786920578E+00
   -3.2710315483E+00   -3.2634067523E+00   -3.2558174205E+00   -3.2482633061E+00
   -3.2407441644E+00   -3.2332597533E+00   -3.2258098327E+00   -3.2183941646E+00
   -3.2110125134E+00   -3.2036646455E+00   -3.1963503296E+00   -3.1890693365E+00
   -3.1818214387E+00   -3.1746064114E+00   -3.1674240312E+00   -3.1602740773E+00
   -3.1531563303E+00   -3.1460705734E+00   -3.1390165911E+00   -3.1319941704E+00
   -3.1250030998E+00   -3.1180431699E+00   -3.1111141730E+00   -3.1042159035E+00
   -3.0973481573E+00   -3.0905107324E+00   -3.0837034283E+00   -3.0769260465E+00
   -3.0701783901E+00   -3.0634602640E+00   -3.0567714747E+00   -3.0501118306E+00
   -3.0434811414E+00   -3.0368792188E+00   -3.0303058761E+00   -3.0237609279E+00
   -3.0172441908E+00   -3.0107554827E+00   -3.0042946232E+00   -2.9978614334E+00
   -2.9914557359E+00   -2.9850773548E+00   -2.9787261158E+00   -2.9724018460E+00
   -2.9661043740E+00   -2.9598335299E+00   -2.9535891450E+00   -2.9473710524E+00
   -2.9411790862E+00   -2.9350130822E+00   -2.9288728774E+00   -2.9227583103E+00
   -2.9166692205E+00   -2.9106054493E+00   -2.9045668389E+00   -2.8985532332E+00
   -2.8925644772E+00   -2.8866004171E+00   -2.8806609005E+00   -2.8747457761E+00
   -2.8688548942E+00   -2.8629881058E+00   -2.8571452636E+00   -2.8513262212E+00
   -2.8455308334E+00   -2.8397589564E+00   -2.8340104474E+00   -2.8282851647E+00
   -2.8225829678E+00   -2.8169037175E+00   -2.8112472754E+00   -2.8056135044E+00
   -2.8000022686E+00   -2.7944134329E+00   -2.7888468636E+00   -2.7833024277E+00
   -2.7777799937E+00   -2.7722794307E+00   -2.7668006090E+00   -2.7613434002E+00
   -2.7559076764E+00   -2.7504933111E+00   -2.7451001786E+00   -2.7397281543E+00
   -2.7343771145E+00   -2.7290469365E+00   -2.7237374986E+00   -2.7184486798E+00
   -2.7131803604E+00   -2.7079324213E+00   -2.7027047446E+00   -2.6974972131E+00
   -2.6923097106E+00   -2.6871421217E+00   -2.6819943321E+00   -2.6768662281E+00
   -2.6717576971E+00   -2.6666686272E+00   -2.6615989073E+00   -2.6565484275E+00
   -2.6515170782E+00   -2.6465047511E+00   -2.6415113385E+00   -2.6365367335E+00
   -2.6315808300E+00   -2.6266435228E+00   -2.6217247074E+00   -2.6168242802E+00