<UPF version="2.0.1">
  <PP_INFO>

 This pseudopotential file has been produced using the code
 ONCVPSP  (Optimized Norm-Conservinng Vanderbilt PSeudopotential)
 scalar-relativistic version 3.3.1 12/12/2017 by D. R. Hamann
 The code is available through a link at URL www.mat-simresearch.com.
 Documentation with the package provides a full discription of the
 input data below.


 While it is not required under the terms of the GNU GPL, it is
 suggested that you cite D. R. Hamann, Phys. Rev. B 88, 085117 (2013)
 in any publication using these pseudopotentials.

    <PP_INPUTFILE>
# ATOM AND REFERENCE CONFIGURATION
# atsym  z   nc   nv     iexc    psfile
  He  2.00    0    1       3      upf
#
#   n    l    f        energy (Ha)
    1    0    2.00
#
# PSEUDOPOTENTIAL AND OPTIMIZATION
# lmax
    0
#
#   l,   rc,      ep,       ncon, nbas, qcut
    0   1.98530  -0.57021    5    8   7.17231
#
# LOCAL POTENTIAL
# lloc, lpopt,  rc(5),   dvloc0
    4    5   0.89431      0.00000
#
# VANDERBILT-KLEINMAN-BYLANDER PROJECTORs
# l, nproj, debl
    0    2   1.34022
#
# MODEL CORE CHARGE
# icmod, fcfact, rcfact
    0   0.00000   0.00000
#
# LOG DERIVATIVE ANALYSIS
# epsh1, epsh2, depsh
   -5.00    3.00    0.02
#
# OUTPUT GRID
# rlmax, drl
    6.00    0.01
#
# TEST CONFIGURATIONS
# ncnf
    0
# nvcnf
#   n    l    f
    </PP_INPUTFILE>
  </PP_INFO>
  <!--                               -->
  <!-- END OF HUMAN READABLE SECTION -->
  <!--                               -->
    <PP_HEADER
       generated="Generated using ONCVPSP code by D. R. Hamann"
       author="anonymous"
       date="220413"
       comment=""
       element="He"
       pseudo_type="NC"
       relativistic="scalar"
       is_ultrasoft="F"
       is_paw="F"
       is_coulomb="F"
       has_so="F"
       has_wfc="F"
       has_gipaw="F"
       core_correction="F"
       functional="PZ"
       z_valence="    2.00"
       total_psenergy="  -5.48406332831E+00"
       rho_cutoff="   7.31000000000E+00"
       l_max="0"
       l_local="-1"
       mesh_size="   732"
       number_of_wfc="1"
       number_of_proj="2"/>
 <PP_MESH>
   <PP_R type="real"  size=" 732" columns="8">
    0.0000    0.0100    0.0200    0.0300    0.0400    0.0500    0.0600    0.0700
    0.0800    0.0900    0.1000    0.1100    0.1200    0.1300    0.1400    0.1500
    0.1600    0.1700    0.1800    0.1900    0.2000    0.2100    0.2200    0.2300
    0.2400    0.2500    0.2600    0.2700    0.2800    0.2900    0.3000    0.3100
    0.3200    0.3300    0.3400    0.3500    0.3600    0.3700    0.3800    0.3900
    0.4000    0.4100    0.4200    0.4300    0.4400    0.4500    0.4600    0.4700
    0.4800    0.4900    0.5000    0.5100    0.5200    0.5300    0.5400    0.5500
    0.5600    0.5700    0.5800    0.5900    0.6000    0.6100    0.6200    0.6300
    0.6400    0.6500    0.6600    0.6700    0.6800    0.6900    0.7000    0.7100
    0.7200    0.7300    0.7400    0.7500    0.7600    0.7700    0.7800    0.7900
    0.8000    0.8100    0.8200    0.8300    0.8400    0.8500    0.8600    0.8700
    0.8800    0.8900    0.9000    0.9100    0.9200    0.9300    0.9400    0.9500
    0.9600    0.9700    0.9800    0.9900    1.0000    1.0100    1.0200    1.0300
    1.0400    1.0500    1.0600    1.0700    1.0800    1.0900    1.1000    1.1100
    1.1200    1.1300    1.1400    1.1500    1.1600    1.1700    1.1800    1.1900
    1.2000    1.2100    1.2200    1.2300    1.2400    1.2500    1.2600    1.2700
    1.2800    1.2900    1.3000    1.3100    1.3200    1.3300    1.3400    1.3500
    1.3600    1.3700    1.3800    1.3900    1.4000    1.4100    1.4200    1.4300
    1.4400    1.4500    1.4600    1.4700    1.4800    1.4900    1.5000    1.5100
    1.5200    1.5300    1.5400    1.5500    1.5600    1.5700    1.5800    1.5900
    1.6000    1.6100    1.6200    1.6300    1.6400    1.6500    1.6600    1.6700
    1.6800    1.6900    1.7000    1.7100    1.7200    1.7300    1.7400    1.7500
    1.7600    1.7700    1.7800    1.7900    1.8000    1.8100    1.8200    1.8300
    1.8400    1.8500    1.8600    1.8700    1.8800    1.8900    1.9000    1.9100
    1.9200    1.9300    1.9400    1.9500    1.9600    1.9700    1.9800    1.9900
    2.0000    2.0100    2.0200    2.0300    2.0400    2.0500    2.0600    2.0700
    2.0800    2.0900    2.1000    2.1100    2.1200    2.1300    2.1400    2.1500
    2.1600    2.1700    2.1800    2.1900    2.2000    2.2100    2.2200    2.2300
    2.2400    2.2500    2.2600    2.2700    2.2800    2.2900    2.3000    2.3100
    2.3200    2.3300    2.3400    2.3500    2.3600    2.3700    2.3800    2.3900
    2.4000    2.4100    2.4200    2.4300    2.4400    2.4500    2.4600    2.4700
    2.4800    2.4900    2.5000    2.5100    2.5200    2.5300    2.5400    2.5500
    2.5600    2.5700    2.5800    2.5900    2.6000    2.6100    2.6200    2.6300
    2.6400    2.6500    2.6600    2.6700    2.6800    2.6900    2.7000    2.7100
    2.7200    2.7300    2.7400    2.7500    2.7600    2.7700    2.7800    2.7900
    2.8000    2.8100    2.8200    2.8300    2.8400    2.8500    2.8600    2.8700
    2.8800    2.8900    2.9000    2.9100    2.9200    2.9300    2.9400    2.9500
    2.9600    2.9700    2.9800    2.9900    3.0000    3.0100    3.0200    3.0300
    3.0400    3.0500    3.0600    3.0700    3.0800    3.0900    3.1000    3.1100
    3.1200    3.1300    3.1400    3.1500    3.1600    3.1700    3.1800    3.1900
    3.2000    3.2100    3.2200    3.2300    3.2400    3.2500    3.2600    3.2700
    3.2800    3.2900    3.3000    3.3100    3.3200    3.3300    3.3400    3.3500
    3.3600    3.3700    3.3800    3.3900    3.4000    3.4100    3.4200    3.4300
    3.4400    3.4500    3.4600    3.4700    3.4800    3.4900    3.5000    3.5100
    3.5200    3.5300    3.5400    3.5500    3.5600    3.5700    3.5800    3.5900
    3.6000    3.6100    3.6200    3.6300    3.6400    3.6500    3.6600    3.6700
    3.6800    3.6900    3.7000    3.7100    3.7200    3.7300    3.7400    3.7500
    3.7600    3.7700    3.7800    3.7900    3.8000    3.8100    3.8200    3.8300
    3.8400    3.8500    3.8600    3.8700    3.8800    3.8900    3.9000    3.9100
    3.9200    3.9300    3.9400    3.9500    3.9600    3.9700    3.9800    3.9900
    4.0000    4.0100    4.0200    4.0300    4.0400    4.0500    4.0600    4.0700
    4.0800    4.0900    4.1000    4.1100    4.1200    4.1300    4.1400    4.1500
    4.1600    4.1700    4.1800    4.1900    4.2000    4.2100    4.2200    4.2300
    4.2400    4.2500    4.2600    4.2700    4.2800    4.2900    4.3000    4.3100
    4.3200    4.3300    4.3400    4.3500    4.3600    4.3700    4.3800    4.3900
    4.4000    4.4100    4.4200    4.4300    4.4400    4.4500    4.4600    4.4700
    4.4800    4.4900    4.5000    4.5100    4.5200    4.5300    4.5400    4.5500
    4.5600    4.5700    4.5800    4.5900    4.6000    4.6100    4.6200    4.6300
    4.6400    4.6500    4.6600    4.6700    4.6800    4.6900    4.7000    4.7100
    4.7200    4.7300    4.7400    4.7500    4.7600    4.7700    4.7800    4.7900
    4.8000    4.8100    4.8200    4.8300    4.8400    4.8500    4.8600    4.8700
    4.8800    4.8900    4.9000    4.9100    4.9200    4.9300    4.9400    4.9500
    4.9600    4.9700    4.9800    4.9900    5.0000    5.0100    5.0200    5.0300
    5.0400    5.0500    5.0600    5.0700    5.0800    5.0900    5.1000    5.1100
    5.1200    5.1300    5.1400    5.1500    5.1600    5.1700    5.1800    5.1900
    5.2000    5.2100    5.2200    5.2300    5.2400    5.2500    5.2600    5.2700
    5.2800    5.2900    5.3000    5.3100    5.3200    5.3300    5.3400    5.3500
    5.3600    5.3700    5.3800    5.3900    5.4000    5.4100    5.4200    5.4300
    5.4400    5.4500    5.4600    5.4700    5.4800    5.4900    5.5000    5.5100
    5.5200    5.5300    5.5400    5.5500    5.5600    5.5700    5.5800    5.5900
    5.6000    5.6100    5.6200    5.6300    5.6400    5.6500    5.6600    5.6700
    5.6800    5.6900    5.7000    5.7100    5.7200    5.7300    5.7400    5.7500
    5.7600    5.7700    5.7800    5.7900    5.8000    5.8100    5.8200    5.8300
    5.8400    5.8500    5.8600    5.8700    5.8800    5.8900    5.9000    5.9100
    5.9200    5.9300    5.9400    5.9500    5.9600    5.9700    5.9800    5.9900
    6.0000    6.0100    6.0200    6.0300    6.0400    6.0500    6.0600    6.0700
    6.0800    6.0900    6.1000    6.1100    6.1200    6.1300    6.1400    6.1500
    6.1600    6.1700    6.1800    6.1900    6.2000    6.2100    6.2200    6.2300
    6.2400    6.2500    6.2600    6.2700    6.2800    6.2900    6.3000    6.3100
    6.3200    6.3300    6.3400    6.3500    6.3600    6.3700    6.3800    6.3900
    6.4000    6.4100    6.4200    6.4300    6.4400    6.4500    6.4600    6.4700
    6.4800    6.4900    6.5000    6.5100    6.5200    6.5300    6.5400    6.5500
    6.5600    6.5700    6.5800    6.5900    6.6000    6.6100    6.6200    6.6300
    6.6400    6.6500    6.6600    6.6700    6.6800    6.6900    6.7000    6.7100
    6.7200    6.7300    6.7400    6.7500    6.7600    6.7700    6.7800    6.7900
    6.8000    6.8100    6.8200    6.8300    6.8400    6.8500    6.8600    6.8700
    6.8800    6.8900    6.9000    6.9100    6.9200    6.9300    6.9400    6.9500
    6.9600    6.9700    6.9800    6.9900    7.0000    7.0100    7.0200    7.0300
    7.0400    7.0500    7.0600    7.0700    7.0800    7.0900    7.1000    7.1100
    7.1200    7.1300    7.1400    7.1500    7.1600    7.1700    7.1800    7.1900
    7.2000    7.2100    7.2200    7.2300    7.2400    7.2500    7.2600    7.2700
    7.2800    7.2900    7.3000    7.3100
   </PP_R>
   <PP_RAB type="real"  size=" 732" columns="8">
    0.0100    0.0100    0.0100    0.0100    0.0100    0.0100    0.0100    0.0100
    0.0100    0.0100    0.0100    0.0100    0.0100    0.0100    0.0100    0.0100
    0.0100    0.0100    0.0100    0.0100    0.0100    0.0100    0.0100    0.0100
    0.0100    0.0100    0.0100    0.0100    0.0100    0.0100    0.0100    0.0100
    0.0100    0.0100    0.0100    0.0100    0.0100    0.0100    0.0100    0.0100
    0.0100    0.0100    0.0100    0.0100    0.0100    0.0100    0.0100    0.0100
    0.0100    0.0100    0.0100    0.0100    0.0100    0.0100    0.0100    0.0100
    0.0100    0.0100    0.0100    0.0100    0.0100    0.0100    0.0100    0.0100
    0.0100    0.0100    0.0100    0.0100    0.0100    0.0100    0.0100    0.0100
    0.0100    0.0100    0.0100    0.0100    0.0100    0.0100    0.0100    0.0100
    0.0100    0.0100    0.0100    0.0100    0.0100    0.0100    0.0100    0.0100
    0.0100    0.0100    0.0100    0.0100    0.0100    0.0100    0.0100    0.0100
    0.0100    0.0100    0.0100    0.0100    0.0100    0.0100    0.0100    0.0100
    0.0100    0.0100    0.0100    0.0100    0.0100    0.0100    0.0100    0.0100
    0.0100    0.0100    0.0100    0.0100    0.0100    0.0100    0.0100    0.0100
    0.0100    0.0100    0.0100    0.0100    0.0100    0.0100    0.0100    0.0100
    0.0100    0.0100    0.0100    0.0100    0.0100    0.0100    0.0100    0.0100
    0.0100    0.0100    0.0100    0.0100    0.0100    0.0100    0.0100    0.0100
    0.0100    0.0100    0.0100    0.0100    0.0100    0.0100    0.0100    0.0100
    0.0100    0.0100    0.0100    0.0100    0.0100    0.0100    0.0100    0.0100
    0.0100    0.0100    0.0100    0.0100    0.0100    0.0100    0.0100    0.0100
    0.0100    0.0100    0.0100    0.0100    0.0100    0.0100    0.0100    0.0100
    0.0100    0.0100    0.0100    0.0100    0.0100    0.0100    0.0100    0.0100
    0.0100    0.0100    0.0100    0.0100    0.0100    0.0100    0.0100    0.0100
    0.0100    0.0100    0.0100    0.0100    0.0100    0.0100    0.0100    0.0100
    0.0100    0.0100    0.0100    0.0100    0.0100    0.0100    0.0100    0.0100
    0.0100    0.0100    0.0100    0.0100    0.0100    0.0100    0.0100    0.0100
    0.0100    0.0100    0.0100    0.0100    0.0100    0.0100    0.0100    0.0100
    0.0100    0.0100    0.0100    0.0100    0.0100    0.0100    0.0100    0.0100
    0.0100    0.0100    0.0100    0.0100    0.0100    0.0100    0.0100    0.0100
    0.0100    0.0100    0.0100    0.0100    0.0100    0.0100    0.0100    0.0100
    0.0100    0.0100    0.0100    0.0100    0.0100    0.0100    0.0100    0.0100
    0.0100    0.0100    0.0100    0.0100    0.0100    0.0100    0.0100    0.0100
    0.0100    0.0100    0.0100    0.0100    0.0100    0.0100    0.0100    0.0100
    0.0100    0.0100    0.0100    0.0100    0.0100    0.0100    0.0100    0.0100
    0.0100    0.0100    0.0100    0.0100    0.0100    0.0100    0.0100    0.0100
    0.0100    0.0100    0.0100    0.0100    0.0100    0.0100    0.0100    0.0100
    0.0100    0.0100    0.0100    0.0100    0.0100    0.0100    0.0100    0.0100
    0.0100    0.0100    0.0100    0.0100    0.0100    0.0100    0.0100    0.0100
    0.0100    0.0100    0.0100    0.0100    0.0100    0.0100    0.0100    0.0100
    0.0100    0.0100    0.0100    0.0100    0.0100    0.0100    0.0100    0.0100
    0.0100    0.0100    0.0100    0.0100    0.0100    0.0100    0.0100    0.0100
    0.0100    0.0100    0.0100    0.0100    0.0100    0.0100    0.0100    0.0100
    0.0100    0.0100    0.0100    0.0100    0.0100    0.0100    0.0100    0.0100
    0.0100    0.0100    0.0100    0.0100    0.0100    0.0100    0.0100    0.0100
    0.0100    0.0100    0.0100    0.0100    0.0100    0.0100    0.0100    0.0100
    0.0100    0.0100    0.0100    0.0100    0.0100    0.0100    0.0100    0.0100
    0.0100    0.0100    0.0100    0.0100    0.0100    0.0100    0.0100    0.0100
    0.0100    0.0100    0.0100    0.0100    0.0100    0.0100    0.0100    0.0100
    0.0100    0.0100    0.0100    0.0100    0.0100    0.0100    0.0100    0.0100
    0.0100    0.0100    0.0100    0.0100    0.0100    0.0100    0.0100    0.0100
    0.0100    0.0100    0.0100    0.0100    0.0100    0.0100    0.0100    0.0100
    0.0100    0.0100    0.0100    0.0100    0.0100    0.0100    0.0100    0.0100
    0.0100    0.0100    0.0100    0.0100    0.0100    0.0100    0.0100    0.0100
    0.0100    0.0100    0.0100    0.0100    0.0100    0.0100    0.0100    0.0100
    0.0100    0.0100    0.0100    0.0100    0.0100    0.0100    0.0100    0.0100
    0.0100    0.0100    0.0100    0.0100    0.0100    0.0100    0.0100    0.0100
    0.0100    0.0100    0.0100    0.0100    0.0100    0.0100    0.0100    0.0100
    0.0100    0.0100    0.0100    0.0100    0.0100    0.0100    0.0100    0.0100
    0.0100    0.0100    0.0100    0.0100    0.0100    0.0100    0.0100    0.0100
    0.0100    0.0100    0.0100    0.0100    0.0100    0.0100    0.0100    0.0100
    0.0100    0.0100    0.0100    0.0100    0.0100    0.0100    0.0100    0.0100
    0.0100    0.0100    0.0100    0.0100    0.0100    0.0100    0.0100    0.0100
    0.0100    0.0100    0.0100    0.0100    0.0100    0.0100    0.0100    0.0100
    0.0100    0.0100    0.0100    0.0100    0.0100    0.0100    0.0100    0.0100
    0.0100    0.0100    0.0100    0.0100    0.0100    0.0100    0.0100    0.0100
    0.0100    0.0100    0.0100    0.0100    0.0100    0.0100    0.0100    0.0100
    0.0100    0.0100    0.0100    0.0100    0.0100    0.0100    0.0100    0.0100
    0.0100    0.0100    0.0100    0.0100    0.0100    0.0100    0.0100    0.0100
    0.0100    0.0100    0.0100    0.0100    0.0100    0.0100    0.0100    0.0100
    0.0100    0.0100    0.0100    0.0100    0.0100    0.0100    0.0100    0.0100
    0.0100    0.0100    0.0100    0.0100    0.0100    0.0100    0.0100    0.0100
    0.0100    0.0100    0.0100    0.0100    0.0100    0.0100    0.0100    0.0100
    0.0100    0.0100    0.0100    0.0100    0.0100    0.0100    0.0100    0.0100
    0.0100    0.0100    0.0100    0.0100    0.0100    0.0100    0.0100    0.0100
    0.0100    0.0100    0.0100    0.0100    0.0100    0.0100    0.0100    0.0100
    0.0100    0.0100    0.0100    0.0100    0.0100    0.0100    0.0100    0.0100
    0.0100    0.0100    0.0100    0.0100    0.0100    0.0100    0.0100    0.0100
    0.0100    0.0100    0.0100    0.0100    0.0100    0.0100    0.0100    0.0100
    0.0100    0.0100    0.0100    0.0100    0.0100    0.0100    0.0100    0.0100
    0.0100    0.0100    0.0100    0.0100    0.0100    0.0100    0.0100    0.0100
    0.0100    0.0100    0.0100    0.0100    0.0100    0.0100    0.0100    0.0100
    0.0100    0.0100    0.0100    0.0100    0.0100    0.0100    0.0100    0.0100
    0.0100    0.0100    0.0100    0.0100    0.0100    0.0100    0.0100    0.0100
    0.0100    0.0100    0.0100    0.0100    0.0100    0.0100    0.0100    0.0100
    0.0100    0.0100    0.0100    0.0100    0.0100    0.0100    0.0100    0.0100
    0.0100    0.0100    0.0100    0.0100    0.0100    0.0100    0.0100    0.0100
    0.0100    0.0100    0.0100    0.0100    0.0100    0.0100    0.0100    0.0100
    0.0100    0.0100    0.0100    0.0100    0.0100    0.0100    0.0100    0.0100
    0.0100    0.0100    0.0100    0.0100    0.0100    0.0100    0.0100    0.0100
    0.0100    0.0100    0.0100    0.0100    0.0100    0.0100    0.0100    0.0100
    0.0100    0.0100    0.0100    0.0100
   </PP_RAB>
 </PP_MESH>
  <PP_LOCAL type="real"  size=" 732" columns="4">
   -9.6044817825E+00   -9.6032473287E+00   -9.5995451834E+00   -9.5933789868E+00
   -9.5847548012E+00   -9.5736811038E+00   -9.5601687759E+00   -9.5442310904E+00
   -9.5258836951E+00   -9.5051445938E+00   -9.4820341250E+00   -9.4565749367E+00
   -9.4287919591E+00   -9.3987123746E+00   -9.3663655849E+00   -9.3317831755E+00
   -9.2949988772E+00   -9.2560485259E+00   -9.2149700189E+00   -9.1718032694E+00
   -9.1265901583E+00   -9.0793744839E+00   -9.0302019088E+00   -8.9791199050E+00
   -8.9261776968E+00   -8.8714262012E+00   -8.8149179671E+00   -8.7567071111E+00
   -8.6968492528E+00   -8.6354014474E+00   -8.5724221170E+00   -8.5079709792E+00
   -8.4421089753E+00   -8.3748981962E+00   -8.3064018063E+00   -8.2366839670E+00
   -8.1658097575E+00   -8.0938450951E+00   -8.0208566539E+00   -7.9469117819E+00
   -7.8720784170E+00   -7.7964250021E+00   -7.7200203986E+00   -7.6429337986E+00
   -7.5652346366E+00   -7.4869924998E+00   -7.4082770371E+00   -7.3291578674E+00
   -7.2497044868E+00   -7.1699861750E+00   -7.0900719002E+00   -7.0100302234E+00
   -6.9299292022E+00   -6.8498362927E+00   -6.7698182511E+00   -6.6899410344E+00
   -6.6102696997E+00   -6.5308683032E+00   -6.4517997977E+00   -6.3731259293E+00
   -6.2949071334E+00   -6.2172024294E+00   -6.1400693144E+00   -6.0635636563E+00
   -5.9877395853E+00   -5.9126493846E+00   -5.8383433804E+00   -5.7648698299E+00
   -5.6922748089E+00   -5.6206020983E+00   -5.5498930688E+00   -5.4801865646E+00
   -5.4115187864E+00   -5.3439231723E+00   -5.2774303063E+00   -5.2120670130E+00
   -5.1478637658E+00   -5.0848041722E+00   -5.0228937587E+00   -4.9622185922E+00
   -4.9027584001E+00   -4.8445257678E+00   -4.7875228854E+00   -4.7317488309E+00
   -4.6771984568E+00   -4.6238623149E+00   -4.5717265172E+00   -4.5207725957E+00
   -4.4709773588E+00   -4.4223127880E+00   -4.3747457270E+00   -4.3282395557E+00
   -4.2827576686E+00   -4.2382651565E+00   -4.1947285405E+00   -4.1521157449E+00
   -4.1103960265E+00   -4.0695399088E+00   -4.0295191217E+00   -3.9903065442E+00
   -3.9518761517E+00   -3.9142029656E+00   -3.8772630059E+00   -3.8410332477E+00
   -3.8054915788E+00   -3.7706167604E+00   -3.7363883900E+00   -3.7027868662E+00
   -3.6697933552E+00   -3.6373897593E+00   -3.6055586867E+00   -3.5742834229E+00
   -3.5435479038E+00   -3.5133366892E+00   -3.4836349385E+00   -3.4544283868E+00
   -3.4257033220E+00   -3.3974465633E+00   -3.3696454404E+00   -3.3422877728E+00
   -3.3153618513E+00   -3.2888564188E+00   -3.2627606526E+00   -3.2370641471E+00
   -3.2117568969E+00   -3.1868292808E+00   -3.1622720461E+00   -3.1380762935E+00
   -3.1142334626E+00   -3.0907353175E+00   -3.0675739331E+00   -3.0447416820E+00
   -3.0222312214E+00   -3.0000354807E+00   -2.9781476496E+00   -2.9565611660E+00
   -2.9352697052E+00   -2.9142671685E+00   -2.8935476728E+00   -2.8731055404E+00
   -2.8529352891E+00   -2.8330316227E+00   -2.8133894216E+00   -2.7940037346E+00
   -2.7748697694E+00   -2.7559828855E+00   -2.7373385856E+00   -2.7189325085E+00
   -2.7007604217E+00   -2.6828182148E+00   -2.6651018928E+00   -2.6476075700E+00
   -2.6303314637E+00   -2.6132698895E+00   -2.5964192548E+00   -2.5797760548E+00
   -2.5633368674E+00   -2.5470983488E+00   -2.5310572291E+00   -2.5152103089E+00
   -2.4995544554E+00   -2.4840865992E+00   -2.4688037307E+00   -2.4537028982E+00
   -2.4387812041E+00   -2.4240358033E+00   -2.4094639009E+00   -2.3950627498E+00
   -2.3808296492E+00   -2.3667619431E+00   -2.3528570183E+00   -2.3391123038E+00
   -2.3255252692E+00   -2.3120934238E+00   -2.2988143160E+00   -2.2856855321E+00
   -2.2727046961E+00   -2.2598694689E+00   -2.2471775480E+00   -2.2346266670E+00
   -2.2222145956E+00   -2.2099391390E+00   -2.1977981379E+00   -2.1857894685E+00
   -2.1739110421E+00   -2.1621608053E+00   -2.1505367394E+00   -2.1390368613E+00
   -2.1276592222E+00   -2.1164019087E+00   -2.1052630416E+00   -2.0942407766E+00
   -2.0833333038E+00   -2.0725388475E+00   -2.0618556658E+00   -2.0512820509E+00
   -2.0408163278E+00   -2.0304568549E+00   -2.0202020228E+00   -2.0100502542E+00
   -2.0000000032E+00   -1.9900497546E+00   -1.9801980232E+00   -1.9704433531E+00
   -1.9607843170E+00   -1.9512195154E+00   -1.9417475760E+00   -1.9323671529E+00
   -1.9230769262E+00   -1.9138756012E+00   -1.9047619078E+00   -1.8957346002E+00
   -1.8867924558E+00   -1.8779342753E+00   -1.8691588814E+00   -1.8604651192E+00
   -1.8518518547E+00   -1.8433179752E+00   -1.8348623881E+00   -1.8264840211E+00
   -1.8181818209E+00   -1.8099547539E+00   -1.8018018045E+00   -1.7937219758E+00
   -1.7857142884E+00   -1.7777777804E+00   -1.7699115070E+00   -1.7621145400E+00
   -1.7543859675E+00   -1.7467248934E+00   -1.7391304373E+00   -1.7316017341E+00
   -1.7241379335E+00   -1.7167381999E+00   -1.7094017118E+00   -1.7021276620E+00
   -1.6949152566E+00   -1.6877637154E+00   -1.6806722712E+00   -1.6736401697E+00
   -1.6666666690E+00   -1.6597510396E+00   -1.6528925642E+00   -1.6460905372E+00
   -1.6393442645E+00   -1.6326530634E+00   -1.6260162623E+00   -1.6194332005E+00
   -1.6129032279E+00   -1.6064257049E+00   -1.6000000021E+00   -1.5936255001E+00
   -1.5873015894E+00   -1.5810276700E+00   -1.5748031516E+00   -1.5686274530E+00
   -1.5625000020E+00   -1.5564202354E+00   -1.5503875989E+00   -1.5444015463E+00
   -1.5384615404E+00   -1.5325670517E+00   -1.5267175591E+00   -1.5209125494E+00
   -1.5151515170E+00   -1.5094339641E+00   -1.5037594003E+00   -1.4981273426E+00
   -1.4925373152E+00   -1.4869888494E+00   -1.4814814833E+00   -1.4760147619E+00
   -1.4705882370E+00   -1.4652014669E+00   -1.4598540163E+00   -1.4545454562E+00
   -1.4492753640E+00   -1.4440433230E+00   -1.4388489225E+00   -1.4336917579E+00
   -1.4285714302E+00   -1.4234875461E+00   -1.4184397179E+00   -1.4134275634E+00
   -1.4084507058E+00   -1.4035087735E+00   -1.3986014002E+00   -1.3937282245E+00
   -1.3888888904E+00   -1.3840830465E+00   -1.3793103463E+00   -1.3745704482E+00
   -1.3698630152E+00   -1.3651877148E+00   -1.3605442192E+00   -1.3559322048E+00
   -1.3513513528E+00   -1.3468013482E+00   -1.3422818806E+00   -1.3377926436E+00
   -1.3333333347E+00   -1.3289036559E+00   -1.3245033126E+00   -1.3201320146E+00
   -1.3157894750E+00   -1.3114754112E+00   -1.3071895438E+00   -1.3029315974E+00
   -1.2987013000E+00   -1.2944983832E+00   -1.2903225819E+00   -1.2861736347E+00
   -1.2820512833E+00   -1.2779552728E+00   -1.2738853516E+00   -1.2698412711E+00
   -1.2658227860E+00   -1.2618296542E+00   -1.2578616364E+00   -1.2539184965E+00
   -1.2500000012E+00   -1.2461059202E+00   -1.2422360260E+00   -1.2383900941E+00
   -1.2345679024E+00   -1.2307692319E+00   -1.2269938662E+00   -1.2232415914E+00
   -1.2195121963E+00   -1.2158054723E+00   -1.2121212132E+00   -1.2084592156E+00
   -1.2048192782E+00   -1.2012012023E+00   -1.1976047915E+00   -1.1940298518E+00
   -1.1904761915E+00   -1.1869436212E+00   -1.1834319537E+00   -1.1799410040E+00
   -1.1764705893E+00   -1.1730205289E+00   -1.1695906443E+00   -1.1661807590E+00
   -1.1627906987E+00   -1.1594202909E+00   -1.1560693652E+00   -1.1527377531E+00
   -1.1494252883E+00   -1.1461318061E+00   -1.1428571438E+00   -1.1396011406E+00
   -1.1363636373E+00   -1.1331444769E+00   -1.1299435038E+00   -1.1267605643E+00
   -1.1235955065E+00   -1.1204481802E+00   -1.1173184367E+00   -1.1142061290E+00
   -1.1111111120E+00   -1.1080332419E+00   -1.1049723766E+00   -1.1019283755E+00
   -1.0989010998E+00   -1.0958904118E+00   -1.0928961757E+00   -1.0899182570E+00
   -1.0869565226E+00   -1.0840108410E+00   -1.0810810819E+00   -1.0781671167E+00
   -1.0752688180E+00   -1.0723860598E+00   -1.0695187174E+00   -1.0666666675E+00
   -1.0638297880E+00   -1.0610079584E+00   -1.0582010590E+00   -1.0554089718E+00
   -1.0526315797E+00   -1.0498687672E+00   -1.0471204196E+00   -1.0443864237E+00
   -1.0416666674E+00   -1.0389610397E+00   -1.0362694308E+00   -1.0335917320E+00
   -1.0309278358E+00   -1.0282776357E+00   -1.0256410264E+00   -1.0230179035E+00
   -1.0204081640E+00   -1.0178117055E+00   -1.0152284271E+00   -1.0126582285E+00
   -1.0101010108E+00   -1.0075566758E+00   -1.0050251263E+00   -1.0025062663E+00
   -1.0000000007E+00   -9.9750623508E-01   -9.9502487629E-01   -9.9255583193E-01
   -9.9009901056E-01   -9.8765432164E-01   -9.8522167552E-01   -9.8280098344E-01
   -9.8039215750E-01   -9.7799511066E-01   -9.7560975673E-01   -9.7323601036E-01
   -9.7087378703E-01   -9.6852300304E-01   -9.6618357549E-01   -9.6385542229E-01
   -9.6153846214E-01   -9.5923261451E-01   -9.5693779964E-01   -9.5465393854E-01
   -9.5238095297E-01   -9.5011876543E-01   -9.4786729916E-01   -9.4562647811E-01
   -9.4339622698E-01   -9.4117647115E-01   -9.3896713671E-01   -9.3676815044E-01
   -9.3457943981E-01   -9.3240093295E-01   -9.3023255868E-01   -9.2807424648E-01
   -9.2592592646E-01   -9.2378752940E-01   -9.2165898671E-01   -9.1954023041E-01
   -9.1743119318E-01   -9.1533180830E-01   -9.1324200965E-01   -9.1116173172E-01
   -9.0909090960E-01   -9.0702947896E-01   -9.0497737607E-01   -9.0293453774E-01
   -9.0090090139E-01   -8.9887640498E-01   -8.9686098703E-01   -8.9485458661E-01
   -8.9285714334E-01   -8.9086859736E-01   -8.8888888936E-01   -8.8691796056E-01
   -8.8495575268E-01   -8.8300220797E-01   -8.8105726918E-01   -8.7912087958E-01
   -8.7719298291E-01   -8.7527352343E-01   -8.7336244586E-01   -8.7145969543E-01
   -8.6956521783E-01   -8.6767895922E-01   -8.6580086624E-01   -8.6393088596E-01
   -8.6206896595E-01   -8.6021505419E-01   -8.5836909913E-01   -8.5653104967E-01
   -8.5470085512E-01   -8.5287846523E-01   -8.5106383020E-01   -8.4925690062E-01
   -8.4745762752E-01   -8.4566596235E-01   -8.4388185694E-01   -8.4210526355E-01
   -8.4033613485E-01   -8.3857442387E-01   -8.3682008407E-01   -8.3507306928E-01
   -8.3333333372E-01   -8.3160083198E-01   -8.2987551905E-01   -8.2815735027E-01
   -8.2644628136E-01   -8.2474226841E-01   -8.2304526786E-01   -8.2135523650E-01
   -8.1967213151E-01   -8.1799591038E-01   -8.1632653097E-01   -8.1466395147E-01
   -8.1300813043E-01   -8.1135902672E-01   -8.0971659954E-01   -8.0808080842E-01
   -8.0645161324E-01   -8.0482897418E-01   -8.0321285174E-01   -8.0160320675E-01
   -8.0000000033E-01   -7.9840319394E-01   -7.9681274933E-01   -7.9522862855E-01
   -7.9365079397E-01   -7.9207920824E-01   -7.9051383431E-01   -7.8895463542E-01
   -7.8740157512E-01   -7.8585461721E-01   -7.8431372580E-01   -7.8277886528E-01
   -7.8125000030E-01   -7.7972709582E-01   -7.7821011703E-01   -7.7669902942E-01
   -7.7519379874E-01   -7.7369439101E-01   -7.7220077249E-01   -7.7071290973E-01
   -7.6923076952E-01   -7.6775431890E-01   -7.6628352519E-01   -7.6481835592E-01
   -7.6335877890E-01   -7.6190476218E-01   -7.6045627404E-01   -7.5901328301E-01
   -7.5757575785E-01   -7.5614366757E-01   -7.5471698140E-01   -7.5329566881E-01
   -7.5187969951E-01   -7.5046904341E-01   -7.4906367067E-01   -7.4766355166E-01
   -7.4626865697E-01   -7.4487895742E-01   -7.4349442404E-01   -7.4211502808E-01
   -7.4074074099E-01   -7.3937153444E-01   -7.3800738032E-01   -7.3664825070E-01
   -7.3529411789E-01   -7.3394495437E-01   -7.3260073284E-01   -7.3126142620E-01
   -7.2992700753E-01   -7.2859745014E-01   -7.2727272750E-01   -7.2595281330E-01
   -7.2463768139E-01   -7.2332730583E-01   -7.2202166087E-01   -7.2072072094E-01
   -7.1942446065E-01   -7.1813285480E-01   -7.1684587835E-01   -7.1556350648E-01
   -7.1428571450E-01   -7.1301247793E-01   -7.1174377245E-01   -7.1047957392E-01
   -7.0921985836E-01   -7.0796460198E-01   -7.0671378112E-01   -7.0546737234E-01
   -7.0422535232E-01   -7.0298769792E-01   -7.0175438616E-01   -7.0052539424E-01
   -6.9930069950E-01   -6.9808027943E-01   -6.9686411169E-01   -6.9565217411E-01
   -6.9444444464E-01   -6.9324090140E-01   -6.9204152268E-01   -6.9084628689E-01
   -6.8965517260E-01   -6.8846815853E-01   -6.8728522355E-01   -6.8610634667E-01
   -6.8493150703E-01   -6.8376068394E-01   -6.8259385683E-01   -6.8143100529E-01
   -6.8027210902E-01   -6.7911714788E-01   -6.7796610187E-01   -6.7681895110E-01
   -6.7567567585E-01   -6.7453625649E-01   -6.7340067357E-01   -6.7226890773E-01
   -6.7114093976E-01   -6.7001675058E-01   -6.6889632123E-01   -6.6777963288E-01
   -6.6666666683E-01   -6.6555740449E-01   -6.6445182740E-01   -6.6334991724E-01
   -6.6225165579E-01   -6.6115702495E-01   -6.6006600675E-01   -6.5897858335E-01
   -6.5789473699E-01   -6.5681445007E-01   -6.5573770507E-01   -6.5466448460E-01
   -6.5359477139E-01   -6.5252854827E-01   -6.5146579819E-01   -6.5040650421E-01
   -6.4935064949E-01   -6.4829821732E-01   -6.4724919108E-01   -6.4620355426E-01
   -6.4516129046E-01   -6.4412238339E-01   -6.4308681686E-01   -6.4205457478E-01
   -6.4102564116E-01   -6.4000000013E-01   -6.3897763592E-01   -6.3795853283E-01
   -6.3694267529E-01   -6.3593004783E-01   -6.3492063505E-01   -6.3391442168E-01
   -6.3291139253E-01   -6.3191153251E-01   -6.3091482663E-01   -6.2992125997E-01