<UPF version="2.0.1">
  <PP_INFO>

 This pseudopotential file has been produced using the code
 ONCVPSP  (Optimized Norm-Conservinng Vanderbilt PSeudopotential)
 scalar-relativistic version 3.3.1 12/12/2017 by D. R. Hamann
 The code is available through a link at URL www.mat-simresearch.com.
 Documentation with the package provides a full discription of the
 input data below.


 While it is not required under the terms of the GNU GPL, it is
 suggested that you cite D. R. Hamann, Phys. Rev. B 88, 085117 (2013)
 in any publication using these pseudopotentials.

    <PP_INPUTFILE>
# ATOM AND REFERENCE CONFIGURATION
# atsym  z   nc   nv     iexc    psfile
  Ne 10.00    1    2       3      upf
#
#   n    l    f        energy (Ha)
    1    0    2.00
    2    0    2.00
    2    1    6.00
#
# PSEUDOPOTENTIAL AND OPTIMIZATION
# lmax
    1
#
#   l,   rc,      ep,       ncon, nbas, qcut
    0   2.61642  -1.32246    5    8   7.96858
    1   2.63783  -0.49777    5    8   6.60628
#
# LOCAL POTENTIAL
# lloc, lpopt,  rc(5),   dvloc0
    4    5   2.61477      0.00000
#
# VANDERBILT-KLEINMAN-BYLANDER PROJECTORs
# l, nproj, debl
    0    2   1.54861
    1    2   1.11000
#
# MODEL CORE CHARGE
# icmod, fcfact, rcfact
    0   0.00000   0.00000
#
# LOG DERIVATIVE ANALYSIS
# epsh1, epsh2, depsh
   -5.00    3.00    0.02
#
# OUTPUT GRID
# rlmax, drl
    6.00    0.01
#
# TEST CONFIGURATIONS
# ncnf
    0
# nvcnf
#   n    l    f
    </PP_INPUTFILE>
  </PP_INFO>
  <!--                               -->
  <!-- END OF HUMAN READABLE SECTION -->
  <!--                               -->
    <PP_HEADER
       generated="Generated using ONCVPSP code by D. R. Hamann"
       author="anonymous"
       date="220413"
       comment=""
       element="Ne"
       pseudo_type="NC"
       relativistic="scalar"
       is_ultrasoft="F"
       is_paw="F"
       is_coulomb="F"
       has_so="F"
       has_wfc="F"
       has_gipaw="F"
       core_correction="F"
       functional="PZ"
       z_valence="    8.00"
       total_psenergy="  -6.08819876385E+01"
       rho_cutoff="   7.49000000000E+00"
       l_max="1"
       l_local="-1"
       mesh_size="   750"
       number_of_wfc="2"
       number_of_proj="4"/>
 <PP_MESH>
   <PP_R type="real"  size=" 750" columns="8">
    0.0000    0.0100    0.0200    0.0300    0.0400    0.0500    0.0600    0.0700
    0.0800    0.0900    0.1000    0.1100    0.1200    0.1300    0.1400    0.1500
    0.1600    0.1700    0.1800    0.1900    0.2000    0.2100    0.2200    0.2300
    0.2400    0.2500    0.2600    0.2700    0.2800    0.2900    0.3000    0.3100
    0.3200    0.3300    0.3400    0.3500    0.3600    0.3700    0.3800    0.3900
    0.4000    0.4100    0.4200    0.4300    0.4400    0.4500    0.4600    0.4700
    0.4800    0.4900    0.5000    0.5100    0.5200    0.5300    0.5400    0.5500
    0.5600    0.5700    0.5800    0.5900    0.6000    0.6100    0.6200    0.6300
    0.6400    0.6500    0.6600    0.6700    0.6800    0.6900    0.7000    0.7100
    0.7200    0.7300    0.7400    0.7500    0.7600    0.7700    0.7800    0.7900
    0.8000    0.8100    0.8200    0.8300    0.8400    0.8500    0.8600    0.8700
    0.8800    0.8900    0.9000    0.9100    0.9200    0.9300    0.9400    0.9500
    0.9600    0.9700    0.9800    0.9900    1.0000    1.0100    1.0200    1.0300
    1.0400    1.0500    1.0600    1.0700    1.0800    1.0900    1.1000    1.1100
    1.1200    1.1300    1.1400    1.1500    1.1600    1.1700    1.1800    1.1900
    1.2000    1.2100    1.2200    1.2300    1.2400    1.2500    1.2600    1.2700
    1.2800    1.2900    1.3000    1.3100    1.3200    1.3300    1.3400    1.3500
    1.3600    1.3700    1.3800    1.3900    1.4000    1.4100    1.4200    1.4300
    1.4400    1.4500    1.4600    1.4700    1.4800    1.4900    1.5000    1.5100
    1.5200    1.5300    1.5400    1.5500    1.5600    1.5700    1.5800    1.5900
    1.6000    1.6100    1.6200    1.6300    1.6400    1.6500    1.6600    1.6700
    1.6800    1.6900    1.7000    1.7100    1.7200    1.7300    1.7400    1.7500
    1.7600    1.7700    1.7800    1.7900    1.8000    1.8100    1.8200    1.8300
    1.8400    1.8500    1.8600    1.8700    1.8800    1.8900    1.9000    1.9100
    1.9200    1.9300    1.9400    1.9500    1.9600    1.9700    1.9800    1.9900
    2.0000    2.0100    2.0200    2.0300    2.0400    2.0500    2.0600    2.0700
    2.0800    2.0900    2.1000    2.1100    2.1200    2.1300    2.1400    2.1500
    2.1600    2.1700    2.1800    2.1900    2.2000    2.2100    2.2200    2.2300
    2.2400    2.2500    2.2600    2.2700    2.2800    2.2900    2.3000    2.3100
    2.3200    2.3300    2.3400    2.3500    2.3600    2.3700    2.3800    2.3900
    2.4000    2.4100    2.4200    2.4300    2.4400    2.4500    2.4600    2.4700
    2.4800    2.4900    2.5000    2.5100    2.5200    2.5300    2.5400    2.5500
    2.5600    2.5700    2.5800    2.5900    2.6000    2.6100    2.6200    2.6300
    2.6400    2.6500    2.6600    2.6700    2.6800    2.6900    2.7000    2.7100
    2.7200    2.7300    2.7400    2.7500    2.7600    2.7700    2.7800    2.7900
    2.8000    2.8100    2.8200    2.8300    2.8400    2.8500    2.8600    2.8700
    2.8800    2.8900    2.9000    2.9100    2.9200    2.9300    2.9400    2.9500
    2.9600    2.9700    2.9800    2.9900    3.0000    3.0100    3.0200    3.0300
    3.0400    3.0500    3.0600    3.0700    3.0800    3.0900    3.1000    3.1100
    3.1200    3.1300    3.1400    3.1500    3.1600    3.1700    3.1800    3.1900
    3.2000    3.2100    3.2200    3.2300    3.2400    3.2500    3.2600    3.2700
    3.2800    3.2900    3.3000    3.3100    3.3200    3.3300    3.3400    3.3500
    3.3600    3.3700    3.3800    3.3900    3.4000    3.4100    3.4200    3.4300
    3.4400    3.4500    3.4600    3.4700    3.4800    3.4900    3.5000    3.5100
    3.5200    3.5300    3.5400    3.5500    3.5600    3.5700    3.5800    3.5900
    3.6000    3.6100    3.6200    3.6300    3.6400    3.6500    3.6600    3.6700
    3.6800    3.6900    3.7000    3.7100    3.7200    3.7300    3.7400    3.7500
    3.7600    3.7700    3.7800    3.7900    3.8000    3.8100    3.8200    3.8300
    3.8400    3.8500    3.8600    3.8700    3.8800    3.8900    3.9000    3.9100
    3.9200    3.9300    3.9400    3.9500    3.9600    3.9700    3.9800    3.9900
    4.0000    4.0100    4.0200    4.0300    4.0400    4.0500    4.0600    4.0700
    4.0800    4.0900    4.1000    4.1100    4.1200    4.1300    4.1400    4.1500
    4.1600    4.1700    4.1800    4.1900    4.2000    4.2100    4.2200    4.2300
    4.2400    4.2500    4.2600    4.2700    4.2800    4.2900    4.3000    4.3100
    4.3200    4.3300    4.3400    4.3500    4.3600    4.3700    4.3800    4.3900
    4.4000    4.4100    4.4200    4.4300    4.4400    4.4500    4.4600    4.4700
    4.4800    4.4900    4.5000    4.5100    4.5200    4.5300    4.5400    4.5500
    4.5600    4.5700    4.5800    4.5900    4.6000    4.6100    4.6200    4.6300
    4.6400    4.6500    4.6600    4.6700    4.6800    4.6900    4.7000    4.7100
    4.7200    4.7300    4.7400    4.7500    4.7600    4.7700    4.7800    4.7900
    4.8000    4.8100    4.8200    4.8300    4.8400    4.8500    4.8600    4.8700
    4.8800    4.8900    4.9000    4.9100    4.9200    4.9300    4.9400    4.9500
    4.9600    4.9700    4.9800    4.9900    5.0000    5.0100    5.0200    5.0300
    5.0400    5.0500    5.0600    5.0700    5.0800    5.0900    5.1000    5.1100
    5.1200    5.1300    5.1400    5.1500    5.1600    5.1700    5.1800    5.1900
    5.2000    5.2100    5.2200    5.2300    5.2400    5.2500    5.2600    5.2700
    5.2800    5.2900    5.3000    5.3100    5.3200    5.3300    5.3400    5.3500
    5.3600    5.3700    5.3800    5.3900    5.4000    5.4100    5.4200    5.4300
    5.4400    5.4500    5.4600    5.4700    5.4800    5.4900    5.5000    5.5100
    5.5200    5.5300    5.5400    5.5500    5.5600    5.5700    5.5800    5.5900
    5.6000    5.6100    5.6200    5.6300    5.6400    5.6500    5.6600    5.6700
    5.6800    5.6900    5.7000    5.7100    5.7200    5.7300    5.7400    5.7500
    5.7600    5.7700    5.7800    5.7900    5.8000    5.8100    5.8200    5.8300
    5.8400    5.8500    5.8600    5.8700    5.8800    5.8900    5.9000    5.9100
    5.9200    5.9300    5.9400    5.9500    5.9600    5.9700    5.9800    5.9900
    6.0000    6.0100    6.0200    6.0300    6.0400    6.0500    6.0600    6.0700
    6.0800    6.0900    6.1000    6.1100    6.1200    6.1300    6.1400    6.1500
    6.1600    6.1700    6.1800    6.1900    6.2000    6.2100    6.2200    6.2300
    6.2400    6.2500    6.2600    6.2700    6.2800    6.2900    6.3000    6.3100
    6.3200    6.3300    6.3400    6.3500    6.3600    6.3700    6.3800    6.3900
    6.4000    6.4100    6.4200    6.4300    6.4400    6.4500    6.4600    6.4700
    6.4800    6.4900    6.5000    6.5100    6.5200    6.5300    6.5400    6.5500
    6.5600    6.5700    6.5800    6.5900    6.6000    6.6100    6.6200    6.6300
    6.6400    6.6500    6.6600    6.6700    6.6800    6.6900    6.7000    6.7100
    6.7200    6.7300    6.7400    6.7500    6.7600    6.7700    6.7800    6.7900
    6.8000    6.8100    6.8200    6.8300    6.8400    6.8500    6.8600    6.8700
    6.8800    6.8900    6.9000    6.9100    6.9200    6.9300    6.9400    6.9500
    6.9600    6.9700    6.9800    6.9900    7.0000    7.0100    7.0200    7.0300
    7.0400    7.0500    7.0600    7.0700    7.0800    7.0900    7.1000    7.1100
    7.1200    7.1300    7.1400    7.1500    7.1600    7.1700    7.1800    7.1900
    7.2000    7.2100    7.2200    7.2300    7.2400    7.2500    7.2600    7.2700
    7.2800    7.2900    7.3000    7.3100    7.3200    7.3300    7.3400    7.3500
    7.3600    7.3700    7.3800    7.3900    7.4000    7.4100    7.4200    7.4300
    7.4400    7.4500    7.4600    7.4700    7.4800    7.4900
   </PP_R>
   <PP_RAB type="real"  size=" 750" columns="8">
    0.0100    0.0100    0.0100    0.0100    0.0100    0.0100    0.0100    0.0100
    0.0100    0.0100    0.0100    0.0100    0.0100    0.0100    0.0100    0.0100
    0.0100    0.0100    0.0100    0.0100    0.0100    0.0100    0.0100    0.0100
    0.0100    0.0100    0.0100    0.0100    0.0100    0.0100    0.0100    0.0100
    0.0100    0.0100    0.0100    0.0100    0.0100    0.0100    0.0100    0.0100
    0.0100    0.0100    0.0100    0.0100    0.0100    0.0100    0.0100    0.0100
    0.0100    0.0100    0.0100    0.0100    0.0100    0.0100    0.0100    0.0100
    0.0100    0.0100    0.0100    0.0100    0.0100    0.0100    0.0100    0.0100
    0.0100    0.0100    0.0100    0.0100    0.0100    0.0100    0.0100    0.0100
    0.0100    0.0100    0.0100    0.0100    0.0100    0.0100    0.0100    0.0100
    0.0100    0.0100    0.0100    0.0100    0.0100    0.0100    0.0100    0.0100
    0.0100    0.0100    0.0100    0.0100    0.0100    0.0100    0.0100    0.0100
    0.0100    0.0100    0.0100    0.0100    0.0100    0.0100    0.0100    0.0100
    0.0100    0.0100    0.0100    0.0100    0.0100    0.0100    0.0100    0.0100
    0.0100    0.0100    0.0100    0.0100    0.0100    0.0100    0.0100    0.0100
    0.0100    0.0100    0.0100    0.0100    0.0100    0.0100    0.0100    0.0100
    0.0100    0.0100    0.0100    0.0100    0.0100    0.0100    0.0100    0.0100
    0.0100    0.0100    0.0100    0.0100    0.0100    0.0100    0.0100    0.0100
    0.0100    0.0100    0.0100    0.0100    0.0100    0.0100    0.0100    0.0100
    0.0100    0.0100    0.0100    0.0100    0.0100    0.0100    0.0100    0.0100
    0.0100    0.0100    0.0100    0.0100    0.0100    0.0100    0.0100    0.0100
    0.0100    0.0100    0.0100    0.0100    0.0100    0.0100    0.0100    0.0100
    0.0100    0.0100    0.0100    0.0100    0.0100    0.0100    0.0100    0.0100
    0.0100    0.0100    0.0100    0.0100    0.0100    0.0100    0.0100    0.0100
    0.0100    0.0100    0.0100    0.0100    0.0100    0.0100    0.0100    0.0100
    0.0100    0.0100    0.0100    0.0100    0.0100    0.0100    0.0100    0.0100
    0.0100    0.0100    0.0100    0.0100    0.0100    0.0100    0.0100    0.0100
    0.0100    0.0100    0.0100    0.0100    0.0100    0.0100    0.0100    0.0100
    0.0100    0.0100    0.0100    0.0100    0.0100    0.0100    0.0100    0.0100
    0.0100    0.0100    0.0100    0.0100    0.0100    0.0100    0.0100    0.0100
    0.0100    0.0100    0.0100    0.0100    0.0100    0.0100    0.0100    0.0100
    0.0100    0.0100    0.0100    0.0100    0.0100    0.0100    0.0100    0.0100
    0.0100    0.0100    0.0100    0.0100    0.0100    0.0100    0.0100    0.0100
    0.0100    0.0100    0.0100    0.0100    0.0100    0.0100    0.0100    0.0100
    0.0100    0.0100    0.0100    0.0100    0.0100    0.0100    0.0100    0.0100
    0.0100    0.0100    0.0100    0.0100    0.0100    0.0100    0.0100    0.0100
    0.0100    0.0100    0.0100    0.0100    0.0100    0.0100    0.0100    0.0100
    0.0100    0.0100    0.0100    0.0100    0.0100    0.0100    0.0100    0.0100
    0.0100    0.0100    0.0100    0.0100    0.0100    0.0100    0.0100    0.0100
    0.0100    0.0100    0.0100    0.0100    0.0100    0.0100    0.0100    0.0100
    0.0100    0.0100    0.0100    0.0100    0.0100    0.0100    0.0100    0.0100
    0.0100    0.0100    0.0100    0.0100    0.0100    0.0100    0.0100    0.0100
    0.0100    0.0100    0.0100    0.0100    0.0100    0.0100    0.0100    0.0100
    0.0100    0.0100    0.0100    0.0100    0.0100    0.0100    0.0100    0.0100
    0.0100    0.0100    0.0100    0.0100    0.0100    0.0100    0.0100    0.0100
    0.0100    0.0100    0.0100    0.0100    0.0100    0.0100    0.0100    0.0100
    0.0100    0.0100    0.0100    0.0100    0.0100    0.0100    0.0100    0.0100
    0.0100    0.0100    0.0100    0.0100    0.0100    0.0100    0.0100    0.0100
    0.0100    0.0100    0.0100    0.0100    0.0100    0.0100    0.0100    0.0100
    0.0100    0.0100    0.0100    0.0100    0.0100    0.0100    0.0100    0.0100
    0.0100    0.0100    0.0100    0.0100    0.0100    0.0100    0.0100    0.0100
    0.0100    0.0100    0.0100    0.0100    0.0100    0.0100    0.0100    0.0100
    0.0100    0.0100    0.0100    0.0100    0.0100    0.0100    0.0100    0.0100
    0.0100    0.0100    0.0100    0.0100    0.0100    0.0100    0.0100    0.0100
    0.0100    0.0100    0.0100    0.0100    0.0100    0.0100    0.0100    0.0100
    0.0100    0.0100    0.0100    0.0100    0.0100    0.0100    0.0100    0.0100
    0.0100    0.0100    0.0100    0.0100    0.0100    0.0100    0.0100    0.0100
    0.0100    0.0100    0.0100    0.0100    0.0100    0.0100    0.0100    0.0100
    0.0100    0.0100    0.0100    0.0100    0.0100    0.0100    0.0100    0.0100
    0.0100    0.0100    0.0100    0.0100    0.0100    0.0100    0.0100    0.0100
    0.0100    0.0100    0.0100    0.0100    0.0100    0.0100    0.0100    0.0100
    0.0100    0.0100    0.0100    0.0100    0.0100    0.0100    0.0100    0.0100
    0.0100    0.0100    0.0100    0.0100    0.0100    0.0100    0.0100    0.0100
    0.0100    0.0100    0.0100    0.0100    0.0100    0.0100    0.0100    0.0100
    0.0100    0.0100    0.0100    0.0100    0.0100    0.0100    0.0100    0.0100
    0.0100    0.0100    0.0100    0.0100    0.0100    0.0100    0.0100    0.0100
    0.0100    0.0100    0.0100    0.0100    0.0100    0.0100    0.0100    0.0100
    0.0100    0.0100    0.0100    0.0100    0.0100    0.0100    0.0100    0.0100
    0.0100    0.0100    0.0100    0.0100    0.0100    0.0100    0.0100    0.0100
    0.0100    0.0100    0.0100    0.0100    0.0100    0.0100    0.0100    0.0100
    0.0100    0.0100    0.0100    0.0100    0.0100    0.0100    0.0100    0.0100
    0.0100    0.0100    0.0100    0.0100    0.0100    0.0100    0.0100    0.0100
    0.0100    0.0100    0.0100    0.0100    0.0100    0.0100    0.0100    0.0100
    0.0100    0.0100    0.0100    0.0100    0.0100    0.0100    0.0100    0.0100
    0.0100    0.0100    0.0100    0.0100    0.0100    0.0100    0.0100    0.0100
    0.0100    0.0100    0.0100    0.0100    0.0100    0.0100    0.0100    0.0100
    0.0100    0.0100    0.0100    0.0100    0.0100    0.0100    0.0100    0.0100
    0.0100    0.0100    0.0100    0.0100    0.0100    0.0100    0.0100    0.0100
    0.0100    0.0100    0.0100    0.0100    0.0100    0.0100    0.0100    0.0100
    0.0100    0.0100    0.0100    0.0100    0.0100    0.0100    0.0100    0.0100
    0.0100    0.0100    0.0100    0.0100    0.0100    0.0100    0.0100    0.0100
    0.0100    0.0100    0.0100    0.0100    0.0100    0.0100    0.0100    0.0100
    0.0100    0.0100    0.0100    0.0100    0.0100    0.0100    0.0100    0.0100
    0.0100    0.0100    0.0100    0.0100    0.0100    0.0100    0.0100    0.0100
    0.0100    0.0100    0.0100    0.0100    0.0100    0.0100    0.0100    0.0100
    0.0100    0.0100    0.0100    0.0100    0.0100    0.0100    0.0100    0.0100
    0.0100    0.0100    0.0100    0.0100    0.0100    0.0100    0.0100    0.0100
    0.0100    0.0100    0.0100    0.0100    0.0100    0.0100    0.0100    0.0100
    0.0100    0.0100    0.0100    0.0100    0.0100    0.0100    0.0100    0.0100
    0.0100    0.0100    0.0100    0.0100    0.0100    0.0100    0.0100    0.0100
    0.0100    0.0100    0.0100    0.0100    0.0100    0.0100    0.0100    0.0100
    0.0100    0.0100    0.0100    0.0100    0.0100    0.0100    0.0100    0.0100
    0.0100    0.0100    0.0100    0.0100    0.0100    0.0100    0.0100    0.0100
    0.0100    0.0100    0.0100    0.0100    0.0100    0.0100
   </PP_RAB>
 </PP_MESH>
  <PP_LOCAL type="real"  size=" 750" columns="4">
   -1.7577701315E+01   -1.7577021270E+01   -1.7574983221E+01   -1.7571593198E+01
   -1.7566861136E+01   -1.7560800675E+01   -1.7553428897E+01   -1.7544766009E+01
   -1.7534834981E+01   -1.7523661142E+01   -1.7511271763E+01   -1.7497695625E+01
   -1.7482962591E+01   -1.7467103187E+01   -1.7450148204E+01   -1.7432128334E+01
   -1.7413073832E+01   -1.7393014218E+01   -1.7371978019E+01   -1.7349992550E+01
   -1.7327083738E+01   -1.7303275980E+01   -1.7278592041E+01   -1.7253052981E+01
   -1.7226678126E+01   -1.7199485046E+01   -1.7171489578E+01   -1.7142705856E+01
   -1.7113146366E+01   -1.7082822016E+01   -1.7051742217E+01   -1.7019914972E+01
   -1.6987346977E+01   -1.6954043728E+01   -1.6920009624E+01   -1.6885248087E+01
   -1.6849761666E+01   -1.6813552156E+01   -1.6776620705E+01   -1.6738967928E+01
   -1.6700594009E+01   -1.6661498808E+01   -1.6621681961E+01   -1.6581142975E+01
   -1.6539881321E+01   -1.6497896517E+01   -1.6455188216E+01   -1.6411756279E+01
   -1.6367600848E+01   -1.6322722412E+01   -1.6277121871E+01   -1.6230800591E+01
   -1.6183760453E+01   -1.6136003905E+01   -1.6087533996E+01   -1.6038354419E+01
   -1.5988469536E+01   -1.5937884410E+01   -1.5886604821E+01   -1.5834637290E+01
   -1.5781989086E+01   -1.5728668237E+01   -1.5674683536E+01   -1.5620044538E+01
   -1.5564761561E+01   -1.5508845675E+01   -1.5452308694E+01   -1.5395163164E+01
   -1.5337422343E+01   -1.5279100185E+01   -1.5220211315E+01   -1.5160771006E+01
   -1.5100795153E+01   -1.5040300241E+01   -1.4979303318E+01   -1.4917821958E+01
   -1.4855874231E+01   -1.4793478666E+01   -1.4730654211E+01   -1.4667420200E+01
   -1.4603796315E+01   -1.4539802540E+01   -1.4475459128E+01   -1.4410786561E+01
   -1.4345805505E+01   -1.4280536774E+01   -1.4215001291E+01   -1.4149220045E+01
   -1.4083214055E+01   -1.4017004328E+01   -1.3950611827E+01   -1.3884057429E+01
   -1.3817361890E+01   -1.3750545814E+01   -1.3683629612E+01   -1.3616633476E+01
   -1.3549577347E+01   -1.3482480880E+01   -1.3415363422E+01   -1.3348243980E+01
   -1.3281141200E+01   -1.3214073339E+01   -1.3147058245E+01   -1.3080113338E+01
   -1.3013255586E+01   -1.2946501494E+01   -1.2879867083E+01   -1.2813367881E+01
   -1.2747018906E+01   -1.2680834658E+01   -1.2614829110E+01   -1.2549015700E+01
   -1.2483407326E+01   -1.2418016340E+01   -1.2352854547E+01   -1.2287933204E+01
   -1.2223263017E+01   -1.2158854147E+01   -1.2094716208E+01   -1.2030858276E+01
   -1.1967288890E+01   -1.1904016060E+01   -1.1841047275E+01   -1.1778389512E+01
   -1.1716049243E+01   -1.1654032447E+01   -1.1592344622E+01   -1.1530990978E+01
   -1.1469975603E+01   -1.1409300706E+01   -1.1348982240E+01   -1.1289006066E+01
   -1.1229320612E+01   -1.1169967251E+01   -1.1111000011E+01   -1.1052397797E+01
   -1.0994152378E+01   -1.0936271165E+01   -1.0878754206E+01   -1.0821601798E+01
   -1.0764814301E+01   -1.0708391726E+01   -1.0652333839E+01   -1.0596640178E+01
   -1.0541310063E+01   -1.0486342619E+01   -1.0431736783E+01   -1.0377491326E+01
   -1.0323604861E+01   -1.0270075862E+01   -1.0216902676E+01   -1.0164083535E+01
   -1.0111616570E+01   -1.0059499822E+01   -1.0007731258E+01   -9.9563087757E+00
   -9.9052302211E+00   -9.8544933946E+00   -9.8040960624E+00   -9.7540359656E+00
   -9.7043108291E+00   -9.6549183698E+00   -9.6058563046E+00   -9.5571223571E+00
   -9.5087142648E+00   -9.4606297850E+00   -9.4128667005E+00   -9.3654228244E+00
   -9.3182960052E+00   -9.2714841305E+00   -9.2249851308E+00   -9.1787969825E+00
   -9.1329177105E+00   -9.0873453906E+00   -9.0420781510E+00   -8.9971141739E+00
   -8.9524516963E+00   -8.9080890103E+00   -8.8640244638E+00   -8.8202564600E+00
   -8.7767834566E+00   -8.7336039658E+00   -8.6907165524E+00   -8.6481198327E+00
   -8.6058124731E+00   -8.5637931878E+00   -8.5220607373E+00   -8.4806139254E+00
   -8.4394515975E+00   -8.3985726378E+00   -8.3579759665E+00   -8.3176605368E+00
   -8.2776253328E+00   -8.2378693657E+00   -8.1983916712E+00   -8.1591913067E+00
   -8.1202673477E+00   -8.0816188852E+00   -8.0432450226E+00   -8.0051448727E+00
   -7.9673175545E+00   -7.9297621909E+00   -7.8924779053E+00   -7.8554638193E+00
   -7.8187190495E+00   -7.7822427059E+00   -7.7460338885E+00   -7.7100916856E+00
   -7.6744151713E+00   -7.6390034037E+00   -7.6038554228E+00   -7.5689702485E+00
   -7.5343468794E+00   -7.4999842911E+00   -7.4658814346E+00   -7.4320372352E+00
   -7.3984505916E+00   -7.3651203748E+00   -7.3320454270E+00   -7.2992245614E+00
   -7.2666565613E+00   -7.2343401798E+00   -7.2022741395E+00   -7.1704571321E+00
   -7.1388878189E+00   -7.1075648301E+00   -7.0764867655E+00   -7.0456521945E+00
   -7.0150596566E+00   -6.9847076615E+00   -6.9545946899E+00   -6.9247191943E+00
   -6.8950795989E+00   -6.8656743012E+00   -6.8365016720E+00   -6.8075600569E+00
   -6.7788477765E+00   -6.7503631279E+00   -6.7221043851E+00   -6.6940698003E+00
   -6.6662576049E+00   -6.6386660102E+00   -6.6112932083E+00   -6.5841373737E+00
   -6.5571966636E+00   -6.5304692191E+00   -6.5039531663E+00   -6.4776466169E+00
   -6.4515476693E+00   -6.4256544094E+00   -6.3999649114E+00   -6.3744772383E+00
   -6.3491894433E+00   -6.3240995697E+00   -6.2992056516E+00   -6.2745057156E+00
   -6.2499977794E+00   -6.2256798516E+00   -6.2015499389E+00   -6.1776060376E+00
   -6.1538461408E+00   -6.1302682190E+00   -6.1068702463E+00   -6.0836502004E+00
   -6.0606060719E+00   -6.0377358689E+00   -6.0150376186E+00   -5.9925093892E+00
   -5.9701492783E+00   -5.9479554142E+00   -5.9259259498E+00   -5.9040590641E+00
   -5.8823529642E+00   -5.8608058836E+00   -5.8394160811E+00   -5.8181818408E+00
   -5.7971014717E+00   -5.7761733075E+00   -5.7553957056E+00   -5.7347670471E+00
   -5.7142857361E+00   -5.6939501996E+00   -5.6737588868E+00   -5.6537102687E+00
   -5.6338028381E+00   -5.6140351088E+00   -5.5944056154E+00   -5.5749129128E+00
   -5.5555555762E+00   -5.5363322005E+00   -5.5172413997E+00   -5.4982818072E+00
   -5.4794520749E+00   -5.4607508733E+00   -5.4421768906E+00   -5.4237288333E+00
   -5.4054054250E+00   -5.3872054067E+00   -5.3691275362E+00   -5.3511705878E+00
   -5.3333333525E+00   -5.3156146370E+00   -5.2980132639E+00   -5.2805280716E+00
   -5.2631579134E+00   -5.2459016579E+00   -5.2287581884E+00   -5.2117264027E+00
   -5.1948052130E+00   -5.1779935456E+00   -5.1612903406E+00   -5.1446945517E+00
   -5.1282051460E+00   -5.1118211040E+00   -5.0955414189E+00   -5.0793650968E+00
   -5.0632911566E+00   -5.0473186293E+00   -5.0314465581E+00   -5.0156739983E+00
   -5.0000000170E+00   -4.9844236929E+00   -4.9689441162E+00   -4.9535603882E+00
   -4.9382716215E+00   -4.9230769396E+00   -4.9079754765E+00   -4.8929663772E+00
   -4.8780487967E+00   -4.8632219006E+00   -4.8484848645E+00   -4.8338368739E+00
   -4.8192771243E+00   -4.8048048206E+00   -4.7904191773E+00   -4.7761194186E+00
   -4.7619047774E+00   -4.7477744961E+00   -4.7337278260E+00   -4.7197640270E+00
   -4.7058823681E+00   -4.6920821265E+00   -4.6783625881E+00   -4.6647230469E+00
   -4.6511628055E+00   -4.6376811741E+00   -4.6242774713E+00   -4.6109510232E+00
   -4.5977011639E+00   -4.5845272350E+00   -4.5714285857E+00   -4.5584045726E+00
   -4.5454545596E+00   -4.5325779177E+00   -4.5197740253E+00   -4.5070422674E+00
   -4.4943820363E+00   -4.4817927308E+00   -4.4692737567E+00   -4.4568245261E+00
   -4.4444444580E+00   -4.4321329774E+00   -4.4198895161E+00   -4.4077135119E+00
   -4.3956044088E+00   -4.3835616570E+00   -4.3715847125E+00   -4.3596730375E+00
   -4.3478260999E+00   -4.3360433733E+00   -4.3243243371E+00   -4.3126684763E+00
   -4.3010752815E+00   -4.2895442485E+00   -4.2780748788E+00   -4.2666666791E+00
   -4.2553191613E+00   -4.2440318426E+00   -4.2328042451E+00   -4.2216358961E+00
   -4.2105263279E+00   -4.1994750777E+00   -4.1884816874E+00   -4.1775457038E+00
   -4.1666666785E+00   -4.1558441676E+00   -4.1450777319E+00   -4.1343669367E+00
   -4.1237113518E+00   -4.1131105514E+00   -4.1025641140E+00   -4.0920716227E+00
   -4.0816326644E+00   -4.0712468306E+00   -4.0609137168E+00   -4.0506329226E+00
   -4.0404040515E+00   -4.0302267113E+00   -4.0201005135E+00   -4.0100250736E+00
   -4.0000000109E+00   -3.9900249485E+00   -3.9800995132E+00   -3.9702233358E+00
   -3.9603960502E+00   -3.9506172945E+00   -3.9408867100E+00   -3.9312039417E+00
   -3.9215686379E+00   -3.9119804505E+00   -3.9024390347E+00   -3.8929440492E+00
   -3.8834951558E+00   -3.8740920198E+00   -3.8647343096E+00   -3.8554216968E+00
   -3.8461538561E+00   -3.8369304655E+00   -3.8277512060E+00   -3.8186157616E+00
   -3.8095238193E+00   -3.8004750691E+00   -3.7914692040E+00   -3.7825059198E+00
   -3.7735849152E+00   -3.7647058918E+00   -3.7558685540E+00   -3.7470726089E+00
   -3.7383177663E+00   -3.7296037389E+00   -3.7209302418E+00   -3.7122969929E+00
   -3.7037037128E+00   -3.6951501246E+00   -3.6866359537E+00   -3.6781609285E+00
   -3.6697247796E+00   -3.6613272400E+00   -3.6529680454E+00   -3.6446469336E+00
   -3.6363636451E+00   -3.6281179225E+00   -3.6199095109E+00   -3.6117381576E+00
   -3.6036036122E+00   -3.5955056265E+00   -3.5874439547E+00   -3.5794183529E+00
   -3.5714285798E+00   -3.5634743959E+00   -3.5555555638E+00   -3.5476718486E+00
   -3.5398230170E+00   -3.5320088382E+00   -3.5242290830E+00   -3.5164835245E+00
   -3.5087719378E+00   -3.5010940999E+00   -3.4934497896E+00   -3.4858387878E+00
   -3.4782608774E+00   -3.4707158429E+00   -3.4632034710E+00   -3.4557235498E+00
   -3.4482758697E+00   -3.4408602227E+00   -3.4334764024E+00   -3.4261242045E+00
   -3.4188034263E+00   -3.4115138667E+00   -3.4042553266E+00   -3.3970276082E+00
   -3.3898305158E+00   -3.3826638551E+00   -3.3755274334E+00   -3.3684210598E+00
   -3.3613445450E+00   -3.3542977010E+00   -3.3472803418E+00   -3.3402922826E+00
   -3.3333333403E+00   -3.3264033334E+00   -3.3195020816E+00   -3.3126294065E+00
   -3.3057851308E+00   -3.2989690790E+00   -3.2921810767E+00   -3.2854209513E+00
   -3.2786885313E+00   -3.2719836467E+00   -3.2653061291E+00   -3.2586558111E+00
   -3.2520325269E+00   -3.2454361120E+00   -3.2388664032E+00   -3.2323232388E+00
   -3.2258064580E+00   -3.2193159017E+00   -3.2128514120E+00   -3.2064128319E+00
   -3.2000000063E+00   -3.1936127807E+00   -3.1872510022E+00   -3.1809145191E+00
   -3.1746031807E+00   -3.1683168378E+00   -3.1620553420E+00   -3.1558185464E+00
   -3.1496063052E+00   -3.1434184735E+00   -3.1372549079E+00   -3.1311154658E+00
   -3.1250000058E+00   -3.1189083879E+00   -3.1128404727E+00   -3.1067961222E+00
   -3.1007751995E+00   -3.0947775685E+00   -3.0888030944E+00   -3.0828516434E+00
   -3.0769230825E+00   -3.0710172800E+00   -3.0651341051E+00   -3.0592734280E+00
   -3.0534351200E+00   -3.0476190530E+00   -3.0418251004E+00   -3.0360531363E+00
   -3.0303030356E+00   -3.0245746745E+00   -3.0188679298E+00   -3.0131826794E+00
   -3.0075188022E+00   -3.0018761778E+00   -2.9962546868E+00   -2.9906542107E+00
   -2.9850746319E+00   -2.9795158337E+00   -2.9739777002E+00   -2.9684601163E+00
   -2.9629629679E+00   -2.9574861417E+00   -2.9520295252E+00   -2.9465930067E+00
   -2.9411764754E+00   -2.9357798213E+00   -2.9304029352E+00   -2.9250457086E+00
   -2.9197080339E+00   -2.9143898043E+00   -2.9090909138E+00   -2.9038112569E+00
   -2.8985507293E+00   -2.8933092270E+00   -2.8880866472E+00   -2.8828828874E+00
   -2.8776978462E+00   -2.8725314228E+00   -2.8673835170E+00   -2.8622540295E+00
   -2.8571428615E+00   -2.8520499152E+00   -2.8469750933E+00   -2.8419182992E+00
   -2.8368794369E+00   -2.8318584113E+00   -2.8268551279E+00   -2.8218694927E+00
   -2.8169014126E+00   -2.8119507950E+00   -2.8070175480E+00   -2.8021015803E+00
   -2.7972028013E+00   -2.7923211210E+00   -2.7874564500E+00   -2.7826086997E+00
   -2.7777777818E+00   -2.7729636088E+00   -2.7681660939E+00   -2.7633851507E+00
   -2.7586206935E+00   -2.7538726372E+00   -2.7491408973E+00   -2.7444253897E+00
   -2.7397260312E+00   -2.7350427388E+00   -2.7303754304E+00   -2.7257240242E+00
   -2.7210884391E+00   -2.7164685945E+00   -2.7118644104E+00   -2.7072758073E+00
   -2.7027027063E+00   -2.6981450289E+00   -2.6936026972E+00   -2.6890756338E+00
   -2.6845637619E+00   -2.6800670052E+00   -2.6755852877E+00   -2.6711185343E+00
   -2.6666666701E+00   -2.6622296207E+00   -2.6578073123E+00   -2.6533996717E+00
   -2.6490066258E+00   -2.6446281025E+00   -2.6402640297E+00   -2.6359143360E+00
   -2.6315789506E+00   -2.6272578029E+00   -2.6229508229E+00   -2.6186579410E+00