<UPF version="2.0.1">
  <PP_INFO>

 This pseudopotential file has been produced using the code
 ONCVPSP  (Optimized Norm-Conservinng Vanderbilt PSeudopotential)
 scalar-relativistic version 3.3.1 12/12/2017 by D. R. Hamann
 The code is available through a link at URL www.mat-simresearch.com.
 Documentation with the package provides a full discription of the
 input data below.


 While it is not required under the terms of the GNU GPL, it is
 suggested that you cite D. R. Hamann, Phys. Rev. B 88, 085117 (2013)
 in any publication using these pseudopotentials.

    <PP_INPUTFILE>
# ATOM AND REFERENCE CONFIGURATION
# atsym  z   nc   nv     iexc    psfile
  O  8.00    1    2       3      upf
#
#   n    l    f        energy (Ha)
    1    0    2.00
    2    0    2.00
    2    1    4.00
#
# PSEUDOPOTENTIAL AND OPTIMIZATION
# lmax
    1
#
#   l,   rc,      ep,       ncon, nbas, qcut
    0   1.28705  -0.87121    5    8   8.98916
    1   1.46383  -0.33829    5    8   9.14990
#
# LOCAL POTENTIAL
# lloc, lpopt,  rc(5),   dvloc0
    4    5   0.89909      0.00000
#
# VANDERBILT-KLEINMAN-BYLANDER PROJECTORs
# l, nproj, debl
    0    2   1.51851
    1    2   1.53631
#
# MODEL CORE CHARGE
# icmod, fcfact, rcfact
    0   0.00000   0.00000
#
# LOG DERIVATIVE ANALYSIS
# epsh1, epsh2, depsh
   -5.00    3.00    0.02
#
# OUTPUT GRID
# rlmax, drl
    6.00    0.01
#
# TEST CONFIGURATIONS
# ncnf
    0
# nvcnf
#   n    l    f
    </PP_INPUTFILE>
  </PP_INFO>
  <!--                               -->
  <!-- END OF HUMAN READABLE SECTION -->
  <!--                               -->
    <PP_HEADER
       generated="Generated using ONCVPSP code by D. R. Hamann"
       author="anonymous"
       date="220413"
       comment=""
       element="O "
       pseudo_type="NC"
       relativistic="scalar"
       is_ultrasoft="F"
       is_paw="F"
       is_coulomb="F"
       has_so="F"
       has_wfc="F"
       has_gipaw="F"
       core_correction="F"
       functional="PZ"
       z_valence="    6.00"
       total_psenergy="  -3.13374064837E+01"
       rho_cutoff="   9.25000000000E+00"
       l_max="1"
       l_local="-1"
       mesh_size="   926"
       number_of_wfc="2"
       number_of_proj="4"/>
 <PP_MESH>
   <PP_R type="real"  size=" 926" columns="8">
    0.0000    0.0100    0.0200    0.0300    0.0400    0.0500    0.0600    0.0700
    0.0800    0.0900    0.1000    0.1100    0.1200    0.1300    0.1400    0.1500
    0.1600    0.1700    0.1800    0.1900    0.2000    0.2100    0.2200    0.2300
    0.2400    0.2500    0.2600    0.2700    0.2800    0.2900    0.3000    0.3100
    0.3200    0.3300    0.3400    0.3500    0.3600    0.3700    0.3800    0.3900
    0.4000    0.4100    0.4200    0.4300    0.4400    0.4500    0.4600    0.4700
    0.4800    0.4900    0.5000    0.5100    0.5200    0.5300    0.5400    0.5500
    0.5600    0.5700    0.5800    0.5900    0.6000    0.6100    0.6200    0.6300
    0.6400    0.6500    0.6600    0.6700    0.6800    0.6900    0.7000    0.7100
    0.7200    0.7300    0.7400    0.7500    0.7600    0.7700    0.7800    0.7900
    0.8000    0.8100    0.8200    0.8300    0.8400    0.8500    0.8600    0.8700
    0.8800    0.8900    0.9000    0.9100    0.9200    0.9300    0.9400    0.9500
    0.9600    0.9700    0.9800    0.9900    1.0000    1.0100    1.0200    1.0300
    1.0400    1.0500    1.0600    1.0700    1.0800    1.0900    1.1000    1.1100
    1.1200    1.1300    1.1400    1.1500    1.1600    1.1700    1.1800    1.1900
    1.2000    1.2100    1.2200    1.2300    1.2400    1.2500    1.2600    1.2700
    1.2800    1.2900    1.3000    1.3100    1.3200    1.3300    1.3400    1.3500
    1.3600    1.3700    1.3800    1.3900    1.4000    1.4100    1.4200    1.4300
    1.4400    1.4500    1.4600    1.4700    1.4800    1.4900    1.5000    1.5100
    1.5200    1.5300    1.5400    1.5500    1.5600    1.5700    1.5800    1.5900
    1.6000    1.6100    1.6200    1.6300    1.6400    1.6500    1.6600    1.6700
    1.6800    1.6900    1.7000    1.7100    1.7200    1.7300    1.7400    1.7500
    1.7600    1.7700    1.7800    1.7900    1.8000    1.8100    1.8200    1.8300
    1.8400    1.8500    1.8600    1.8700    1.8800    1.8900    1.9000    1.9100
    1.9200    1.9300    1.9400    1.9500    1.9600    1.9700    1.9800    1.9900
    2.0000    2.0100    2.0200    2.0300    2.0400    2.0500    2.0600    2.0700
    2.0800    2.0900    2.1000    2.1100    2.1200    2.1300    2.1400    2.1500
    2.1600    2.1700    2.1800    2.1900    2.2000    2.2100    2.2200    2.2300
    2.2400    2.2500    2.2600    2.2700    2.2800    2.2900    2.3000    2.3100
    2.3200    2.3300    2.3400    2.3500    2.3600    2.3700    2.3800    2.3900
    2.4000    2.4100    2.4200    2.4300    2.4400    2.4500    2.4600    2.4700
    2.4800    2.4900    2.5000    2.5100    2.5200    2.5300    2.5400    2.5500
    2.5600    2.5700    2.5800    2.5900    2.6000    2.6100    2.6200    2.6300
    2.6400    2.6500    2.6600    2.6700    2.6800    2.6900    2.7000    2.7100
    2.7200    2.7300    2.7400    2.7500    2.7600    2.7700    2.7800    2.7900
    2.8000    2.8100    2.8200    2.8300    2.8400    2.8500    2.8600    2.8700
    2.8800    2.8900    2.9000    2.9100    2.9200    2.9300    2.9400    2.9500
    2.9600    2.9700    2.9800    2.9900    3.0000    3.0100    3.0200    3.0300
    3.0400    3.0500    3.0600    3.0700    3.0800    3.0900    3.1000    3.1100
    3.1200    3.1300    3.1400    3.1500    3.1600    3.1700    3.1800    3.1900
    3.2000    3.2100    3.2200    3.2300    3.2400    3.2500    3.2600    3.2700
    3.2800    3.2900    3.3000    3.3100    3.3200    3.3300    3.3400    3.3500
    3.3600    3.3700    3.3800    3.3900    3.4000    3.4100    3.4200    3.4300
    3.4400    3.4500    3.4600    3.4700    3.4800    3.4900    3.5000    3.5100
    3.5200    3.5300    3.5400    3.5500    3.5600    3.5700    3.5800    3.5900
    3.6000    3.6100    3.6200    3.6300    3.6400    3.6500    3.6600    3.6700
    3.6800    3.6900    3.7000    3.7100    3.7200    3.7300    3.7400    3.7500
    3.7600    3.7700    3.7800    3.7900    3.8000    3.8100    3.8200    3.8300
    3.8400    3.8500    3.8600    3.8700    3.8800    3.8900    3.9000    3.9100
    3.9200    3.9300    3.9400    3.9500    3.9600    3.9700    3.9800    3.9900
    4.0000    4.0100    4.0200    4.0300    4.0400    4.0500    4.0600    4.0700
    4.0800    4.0900    4.1000    4.1100    4.1200    4.1300    4.1400    4.1500
    4.1600    4.1700    4.1800    4.1900    4.2000    4.2100    4.2200    4.2300
    4.2400    4.2500    4.2600    4.2700    4.2800    4.2900    4.3000    4.3100
    4.3200    4.3300    4.3400    4.3500    4.3600    4.3700    4.3800    4.3900
    4.4000    4.4100    4.4200    4.4300    4.4400    4.4500    4.4600    4.4700
    4.4800    4.4900    4.5000    4.5100    4.5200    4.5300    4.5400    4.5500
    4.5600    4.5700    4.5800    4.5900    4.6000    4.6100    4.6200    4.6300
    4.6400    4.6500    4.6600    4.6700    4.6800    4.6900    4.7000    4.7100
    4.7200    4.7300    4.7400    4.7500    4.7600    4.7700    4.7800    4.7900
    4.8000    4.8100    4.8200    4.8300    4.8400    4.8500    4.8600    4.8700
    4.8800    4.8900    4.9000    4.9100    4.9200    4.9300    4.9400    4.9500
    4.9600    4.9700    4.9800    4.9900    5.0000    5.0100    5.0200    5.0300
    5.0400    5.0500    5.0600    5.0700    5.0800    5.0900    5.1000    5.1100
    5.1200    5.1300    5.1400    5.1500    5.1600    5.1700    5.1800    5.1900
    5.2000    5.2100    5.2200    5.2300    5.2400    5.2500    5.2600    5.2700
    5.2800    5.2900    5.3000    5.3100    5.3200    5.3300    5.3400    5.3500
    5.3600    5.3700    5.3800    5.3900    5.4000    5.4100    5.4200    5.4300
    5.4400    5.4500    5.4600    5.4700    5.4800    5.4900    5.5000    5.5100
    5.5200    5.5300    5.5400    5.5500    5.5600    5.5700    5.5800    5.5900
    5.6000    5.6100    5.6200    5.6300    5.6400    5.6500    5.6600    5.6700
    5.6800    5.6900    5.7000    5.7100    5.7200    5.7300    5.7400    5.7500
    5.7600    5.7700    5.7800    5.7900    5.8000    5.8100    5.8200    5.8300
    5.8400    5.8500    5.8600    5.8700    5.8800    5.8900    5.9000    5.9100
    5.9200    5.9300    5.9400    5.9500    5.9600    5.9700    5.9800    5.9900
    6.0000    6.0100    6.0200    6.0300    6.0400    6.0500    6.0600    6.0700
    6.0800    6.0900    6.1000    6.1100    6.1200    6.1300    6.1400    6.1500
    6.1600    6.1700    6.1800    6.1900    6.2000    6.2100    6.2200    6.2300
    6.2400    6.2500    6.2600    6.2700    6.2800    6.2900    6.3000    6.3100
    6.3200    6.3300    6.3400    6.3500    6.3600    6.3700    6.3800    6.3900
    6.4000    6.4100    6.4200    6.4300    6.4400    6.4500    6.4600    6.4700
    6.4800    6.4900    6.5000    6.5100    6.5200    6.5300    6.5400    6.5500
    6.5600    6.5700    6.5800    6.5900    6.6000    6.6100    6.6200    6.6300
    6.6400    6.6500    6.6600    6.6700    6.6800    6.6900    6.7000    6.7100
    6.7200    6.7300    6.7400    6.7500    6.7600    6.7700    6.7800    6.7900
    6.8000    6.8100    6.8200    6.8300    6.8400    6.8500    6.8600    6.8700
    6.8800    6.8900    6.9000    6.9100    6.9200    6.9300    6.9400    6.9500
    6.9600    6.9700    6.9800    6.9900    7.0000    7.0100    7.0200    7.0300
    7.0400    7.0500    7.0600    7.0700    7.0800    7.0900    7.1000    7.1100
    7.1200    7.1300    7.1400    7.1500    7.1600    7.1700    7.1800    7.1900
    7.2000    7.2100    7.2200    7.2300    7.2400    7.2500    7.2600    7.2700
    7.2800    7.2900    7.3000    7.3100    7.3200    7.3300    7.3400    7.3500
    7.3600    7.3700    7.3800    7.3900    7.4000    7.4100    7.4200    7.4300
    7.4400    7.4500    7.4600    7.4700    7.4800    7.4900    7.5000    7.5100
    7.5200    7.5300    7.5400    7.5500    7.5600    7.5700    7.5800    7.5900
    7.6000    7.6100    7.6200    7.6300    7.6400    7.6500    7.6600    7.6700
    7.6800    7.6900    7.7000    7.7100    7.7200    7.7300    7.7400    7.7500
    7.7600    7.7700    7.7800    7.7900    7.8000    7.8100    7.8200    7.8300
    7.8400    7.8500    7.8600    7.8700    7.8800    7.8900    7.9000    7.9100
    7.9200    7.9300    7.9400    7.9500    7.9600    7.9700    7.9800    7.9900
    8.0000    8.0100    8.0200    8.0300    8.0400    8.0500    8.0600    8.0700
    8.0800    8.0900    8.1000    8.1100    8.1200    8.1300    8.1400    8.1500
    8.1600    8.1700    8.1800    8.1900    8.2000    8.2100    8.2200    8.2300
    8.2400    8.2500    8.2600    8.2700    8.2800    8.2900    8.3000    8.3100
    8.3200    8.3300    8.3400    8.3500    8.3600    8.3700    8.3800    8.3900
    8.4000    8.4100    8.4200    8.4300    8.4400    8.4500    8.4600    8.4700
    8.4800    8.4900    8.5000    8.5100    8.5200    8.5300    8.5400    8.5500
    8.5600    8.5700    8.5800    8.5900    8.6000    8.6100    8.6200    8.6300
    8.6400    8.6500    8.6600    8.6700    8.6800    8.6900    8.7000    8.7100
    8.7200    8.7300    8.7400    8.7500    8.7600    8.7700    8.7800    8.7900
    8.8000    8.8100    8.8200    8.8300    8.8400    8.8500    8.8600    8.8700
    8.8800    8.8900    8.9000    8.9100    8.9200    8.9300    8.9400    8.9500
    8.9600    8.9700    8.9800    8.9900    9.0000    9.0100    9.0200    9.0300
    9.0400    9.0500    9.0600    9.0700    9.0800    9.0900    9.1000    9.1100
    9.1200    9.1300    9.1400    9.1500    9.1600    9.1700    9.1800    9.1900
    9.2000    9.2100    9.2200    9.2300    9.2400    9.2500
   </PP_R>
   <PP_RAB type="real"  size=" 926" columns="8">
    0.0100    0.0100    0.0100    0.0100    0.0100    0.0100    0.0100    0.0100
    0.0100    0.0100    0.0100    0.0100    0.0100    0.0100    0.0100    0.0100
    0.0100    0.0100    0.0100    0.0100    0.0100    0.0100    0.0100    0.0100
    0.0100    0.0100    0.0100    0.0100    0.0100    0.0100    0.0100    0.0100
    0.0100    0.0100    0.0100    0.0100    0.0100    0.0100    0.0100    0.0100
    0.0100    0.0100    0.0100    0.0100    0.0100    0.0100    0.0100    0.0100
    0.0100    0.0100    0.0100    0.0100    0.0100    0.0100    0.0100    0.0100
    0.0100    0.0100    0.0100    0.0100    0.0100    0.0100    0.0100    0.0100
    0.0100    0.0100    0.0100    0.0100    0.0100    0.0100    0.0100    0.0100
    0.0100    0.0100    0.0100    0.0100    0.0100    0.0100    0.0100    0.0100
    0.0100    0.0100    0.0100    0.0100    0.0100    0.0100    0.0100    0.0100
    0.0100    0.0100    0.0100    0.0100    0.0100    0.0100    0.0100    0.0100
    0.0100    0.0100    0.0100    0.0100    0.0100    0.0100    0.0100    0.0100
    0.0100    0.0100    0.0100    0.0100    0.0100    0.0100    0.0100    0.0100
    0.0100    0.0100    0.0100    0.0100    0.0100    0.0100    0.0100    0.0100
    0.0100    0.0100    0.0100    0.0100    0.0100    0.0100    0.0100    0.0100
    0.0100    0.0100    0.0100    0.0100    0.0100    0.0100    0.0100    0.0100
    0.0100    0.0100    0.0100    0.0100    0.0100    0.0100    0.0100    0.0100
    0.0100    0.0100    0.0100    0.0100    0.0100    0.0100    0.0100    0.0100
    0.0100    0.0100    0.0100    0.0100    0.0100    0.0100    0.0100    0.0100
    0.0100    0.0100    0.0100    0.0100    0.0100    0.0100    0.0100    0.0100
    0.0100    0.0100    0.0100    0.0100    0.0100    0.0100    0.0100    0.0100
    0.0100    0.0100    0.0100    0.0100    0.0100    0.0100    0.0100    0.0100
    0.0100    0.0100    0.0100    0.0100    0.0100    0.0100    0.0100    0.0100
    0.0100    0.0100    0.0100    0.0100    0.0100    0.0100    0.0100    0.0100
    0.0100    0.0100    0.0100    0.0100    0.0100    0.0100    0.0100    0.0100
    0.0100    0.0100    0.0100    0.0100    0.0100    0.0100    0.0100    0.0100
    0.0100    0.0100    0.0100    0.0100    0.0100    0.0100    0.0100    0.0100
    0.0100    0.0100    0.0100    0.0100    0.0100    0.0100    0.0100    0.0100
    0.0100    0.0100    0.0100    0.0100    0.0100    0.0100    0.0100    0.0100
    0.0100    0.0100    0.0100    0.0100    0.0100    0.0100    0.0100    0.0100
    0.0100    0.0100    0.0100    0.0100    0.0100    0.0100    0.0100    0.0100
    0.0100    0.0100    0.0100    0.0100    0.0100    0.0100    0.0100    0.0100
    0.0100    0.0100    0.0100    0.0100    0.0100    0.0100    0.0100    0.0100
    0.0100    0.0100    0.0100    0.0100    0.0100    0.0100    0.0100    0.0100
    0.0100    0.0100    0.0100    0.0100    0.0100    0.0100    0.0100    0.0100
    0.0100    0.0100    0.0100    0.0100    0.0100    0.0100    0.0100    0.0100
    0.0100    0.0100    0.0100    0.0100    0.0100    0.0100    0.0100    0.0100
    0.0100    0.0100    0.0100    0.0100    0.0100    0.0100    0.0100    0.0100
    0.0100    0.0100    0.0100    0.0100    0.0100    0.0100    0.0100    0.0100
    0.0100    0.0100    0.0100    0.0100    0.0100    0.0100    0.0100    0.0100
    0.0100    0.0100    0.0100    0.0100    0.0100    0.0100    0.0100    0.0100
    0.0100    0.0100    0.0100    0.0100    0.0100    0.0100    0.0100    0.0100
    0.0100    0.0100    0.0100    0.0100    0.0100    0.0100    0.0100    0.0100
    0.0100    0.0100    0.0100    0.0100    0.0100    0.0100    0.0100    0.0100
    0.0100    0.0100    0.0100    0.0100    0.0100    0.0100    0.0100    0.0100
    0.0100    0.0100    0.0100    0.0100    0.0100    0.0100    0.0100    0.0100
    0.0100    0.0100    0.0100    0.0100    0.0100    0.0100    0.0100    0.0100
    0.0100    0.0100    0.0100    0.0100    0.0100    0.0100    0.0100    0.0100
    0.0100    0.0100    0.0100    0.0100    0.0100    0.0100    0.0100    0.0100
    0.0100    0.0100    0.0100    0.0100    0.0100    0.0100    0.0100    0.0100
    0.0100    0.0100    0.0100    0.0100    0.0100    0.0100    0.0100    0.0100
    0.0100    0.0100    0.0100    0.0100    0.0100    0.0100    0.0100    0.0100
    0.0100    0.0100    0.0100    0.0100    0.0100    0.0100    0.0100    0.0100
    0.0100    0.0100    0.0100    0.0100    0.0100    0.0100    0.0100    0.0100
    0.0100    0.0100    0.0100    0.0100    0.0100    0.0100    0.0100    0.0100
    0.0100    0.0100    0.0100    0.0100    0.0100    0.0100    0.0100    0.0100
    0.0100    0.0100    0.0100    0.0100    0.0100    0.0100    0.0100    0.0100
    0.0100    0.0100    0.0100    0.0100    0.0100    0.0100    0.0100    0.0100
    0.0100    0.0100    0.0100    0.0100    0.0100    0.0100    0.0100    0.0100
    0.0100    0.0100    0.0100    0.0100    0.0100    0.0100    0.0100    0.0100
    0.0100    0.0100    0.0100    0.0100    0.0100    0.0100    0.0100    0.0100
    0.0100    0.0100    0.0100    0.0100    0.0100    0.0100    0.0100    0.0100
    0.0100    0.0100    0.0100    0.0100    0.0100    0.0100    0.0100    0.0100
    0.0100    0.0100    0.0100    0.0100    0.0100    0.0100    0.0100    0.0100
    0.0100    0.0100    0.0100    0.0100    0.0100    0.0100    0.0100    0.0100
    0.0100    0.0100    0.0100    0.0100    0.0100    0.0100    0.0100    0.0100
    0.0100    0.0100    0.0100    0.0100    0.0100    0.0100    0.0100    0.0100
    0.0100    0.0100    0.0100    0.0100    0.0100    0.0100    0.0100    0.0100
    0.0100    0.0100    0.0100    0.0100    0.0100    0.0100    0.0100    0.0100
    0.0100    0.0100    0.0100    0.0100    0.0100    0.0100    0.0100    0.0100
    0.0100    0.0100    0.0100    0.0100    0.0100    0.0100    0.0100    0.0100
    0.0100    0.0100    0.0100    0.0100    0.0100    0.0100    0.0100    0.0100
    0.0100    0.0100    0.0100    0.0100    0.0100    0.0100    0.0100    0.0100
    0.0100    0.0100    0.0100    0.0100    0.0100    0.0100    0.0100    0.0100
    0.0100    0.0100    0.0100    0.0100    0.0100    0.0100    0.0100    0.0100
    0.0100    0.0100    0.0100    0.0100    0.0100    0.0100    0.0100    0.0100
    0.0100    0.0100    0.0100    0.0100    0.0100    0.0100    0.0100    0.0100
    0.0100    0.0100    0.0100    0.0100    0.0100    0.0100    0.0100    0.0100
    0.0100    0.0100    0.0100    0.0100    0.0100    0.0100    0.0100    0.0100
    0.0100    0.0100    0.0100    0.0100    0.0100    0.0100    0.0100    0.0100
    0.0100    0.0100    0.0100    0.0100    0.0100    0.0100    0.0100    0.0100
    0.0100    0.0100    0.0100    0.0100    0.0100    0.0100    0.0100    0.0100
    0.0100    0.0100    0.0100    0.0100    0.0100    0.0100    0.0100    0.0100
    0.0100    0.0100    0.0100    0.0100    0.0100    0.0100    0.0100    0.0100
    0.0100    0.0100    0.0100    0.0100    0.0100    0.0100    0.0100    0.0100
    0.0100    0.0100    0.0100    0.0100    0.0100    0.0100    0.0100    0.0100
    0.0100    0.0100    0.0100    0.0100    0.0100    0.0100    0.0100    0.0100
    0.0100    0.0100    0.0100    0.0100    0.0100    0.0100    0.0100    0.0100
    0.0100    0.0100    0.0100    0.0100    0.0100    0.0100    0.0100    0.0100
    0.0100    0.0100    0.0100    0.0100    0.0100    0.0100    0.0100    0.0100
    0.0100    0.0100    0.0100    0.0100    0.0100    0.0100    0.0100    0.0100
    0.0100    0.0100    0.0100    0.0100    0.0100    0.0100    0.0100    0.0100
    0.0100    0.0100    0.0100    0.0100    0.0100    0.0100    0.0100    0.0100
    0.0100    0.0100    0.0100    0.0100    0.0100    0.0100    0.0100    0.0100
    0.0100    0.0100    0.0100    0.0100    0.0100    0.0100    0.0100    0.0100
    0.0100    0.0100    0.0100    0.0100    0.0100    0.0100    0.0100    0.0100
    0.0100    0.0100    0.0100    0.0100    0.0100    0.0100    0.0100    0.0100
    0.0100    0.0100    0.0100    0.0100    0.0100    0.0100    0.0100    0.0100
    0.0100    0.0100    0.0100    0.0100    0.0100    0.0100    0.0100    0.0100
    0.0100    0.0100    0.0100    0.0100    0.0100    0.0100    0.0100    0.0100
    0.0100    0.0100    0.0100    0.0100    0.0100    0.0100    0.0100    0.0100
    0.0100    0.0100    0.0100    0.0100    0.0100    0.0100    0.0100    0.0100
    0.0100    0.0100    0.0100    0.0100    0.0100    0.0100    0.0100    0.0100
    0.0100    0.0100    0.0100    0.0100    0.0100    0.0100    0.0100    0.0100
    0.0100    0.0100    0.0100    0.0100    0.0100    0.0100    0.0100    0.0100
    0.0100    0.0100    0.0100    0.0100    0.0100    0.0100    0.0100    0.0100
    0.0100    0.0100    0.0100    0.0100    0.0100    0.0100    0.0100    0.0100
    0.0100    0.0100    0.0100    0.0100    0.0100    0.0100    0.0100    0.0100
    0.0100    0.0100    0.0100    0.0100    0.0100    0.0100    0.0100    0.0100
    0.0100    0.0100    0.0100    0.0100    0.0100    0.0100    0.0100    0.0100
    0.0100    0.0100    0.0100    0.0100    0.0100    0.0100    0.0100    0.0100
    0.0100    0.0100    0.0100    0.0100    0.0100    0.0100    0.0100    0.0100
    0.0100    0.0100    0.0100    0.0100    0.0100    0.0100    0.0100    0.0100
    0.0100    0.0100    0.0100    0.0100    0.0100    0.0100    0.0100    0.0100
    0.0100    0.0100    0.0100    0.0100    0.0100    0.0100
   </PP_RAB>
 </PP_MESH>
  <PP_LOCAL type="real"  size=" 926" columns="4">
   -2.9511894358E+01   -2.9506999273E+01   -2.9492244680E+01   -2.9467780615E+01
   -2.9433788278E+01   -2.9390504452E+01   -2.9338207704E+01   -2.9277204173E+01
   -2.9207850736E+01   -2.9130314395E+01   -2.9045025272E+01   -2.8952291596E+01
   -2.8852405322E+01   -2.8745640857E+01   -2.8632254465E+01   -2.8512484699E+01
   -2.8386553529E+01   -2.8254667870E+01   -2.8117021315E+01   -2.7973795924E+01
   -2.7825163977E+01   -2.7671289623E+01   -2.7512330405E+01   -2.7348438633E+01
   -2.7179762613E+01   -2.7006447728E+01   -2.6828637389E+01   -2.6646473853E+01
   -2.6460098934E+01   -2.6269654613E+01   -2.6075283552E+01   -2.5877129526E+01
   -2.5675337788E+01   -2.5470055360E+01   -2.5261431276E+01   -2.5049616760E+01
   -2.4834765367E+01   -2.4617033071E+01   -2.4396578325E+01   -2.4173562074E+01
   -2.3948147737E+01   -2.3720501167E+01   -2.3490790567E+01   -2.3259186396E+01
   -2.3025861238E+01   -2.2790989651E+01   -2.2554748000E+01   -2.2317314259E+01
   -2.2078867807E+01   -2.1839589195E+01   -2.1599659898E+01   -2.1359262061E+01
   -2.1118578217E+01   -2.0877791000E+01   -2.0637082841E+01   -2.0396635655E+01
   -2.0156630515E+01   -1.9917247315E+01   -1.9678664425E+01   -1.9441058340E+01
   -1.9204603310E+01   -1.8969470980E+01   -1.8735830004E+01   -1.8503845670E+01
   -1.8273679507E+01   -1.8045488895E+01   -1.7819426661E+01   -1.7595640684E+01
   -1.7374273486E+01   -1.7155461822E+01   -1.6939336270E+01   -1.6726020812E+01
   -1.6515632423E+01   -1.6308280647E+01   -1.6104067175E+01   -1.5903085424E+01
   -1.5705420111E+01   -1.5511146825E+01   -1.5320331597E+01   -1.5133030474E+01
   -1.4949289079E+01   -1.4769142185E+01   -1.4592613269E+01   -1.4419714082E+01
   -1.4250444200E+01   -1.4084790584E+01   -1.3922727133E+01   -1.3764214231E+01
   -1.3609198293E+01   -1.3457611301E+01   -1.3309370453E+01   -1.3164377373E+01
   -1.3022524755E+01   -1.2883706752E+01   -1.2747822665E+01   -1.2614776127E+01
   -1.2484475026E+01   -1.2356831298E+01   -1.2231760735E+01   -1.2109182799E+01
   -1.1989020456E+01   -1.1871200008E+01   -1.1755650941E+01   -1.1642305773E+01
   -1.1531099912E+01   -1.1421971522E+01   -1.1314861385E+01   -1.1209712780E+01
   -1.1106471352E+01   -1.1005085001E+01   -1.0905503761E+01   -1.0807679684E+01
   -1.0711566778E+01   -1.0617120865E+01   -1.0524298744E+01   -1.0433062420E+01
   -1.0343372517E+01   -1.0255184796E+01   -1.0168465658E+01   -1.0083181846E+01
   -9.9992983255E+00   -9.9167822628E+00   -9.8356017714E+00   -9.7557259339E+00
   -9.6771247873E+00   -9.5997692611E+00   -9.5236311293E+00   -9.4486829676E+00
   -9.3748981146E+00   -9.3022506370E+00   -9.2307152996E+00   -9.1602675382E+00
   -9.0908834354E+00   -9.0225396987E+00   -8.9552136404E+00   -8.8888831591E+00
   -8.8235267234E+00   -8.7591233576E+00   -8.6956526275E+00   -8.6330946284E+00
   -8.5714299730E+00   -8.5106397805E+00   -8.4507056662E+00   -8.3916097302E+00
   -8.3333345479E+00   -8.2758631589E+00   -8.2191790566E+00   -8.1632661766E+00
   -8.1081088855E+00   -8.0536919692E+00   -8.0000006200E+00   -7.9470204217E+00
   -7.8947373377E+00   -7.8431376982E+00   -7.7922081891E+00   -7.7419358393E+00
   -7.6923080109E+00   -7.6433123877E+00   -7.5949369654E+00   -7.5471700419E+00
   -7.5000002074E+00   -7.4534163358E+00   -7.4074075757E+00   -7.3619633421E+00
   -7.3170733081E+00   -7.2727273971E+00   -7.2289157754E+00   -7.1856288449E+00
   -7.1428572361E+00   -7.1005918010E+00   -7.0588236071E+00   -7.0175439308E+00
   -6.9767442514E+00   -6.9364162451E+00   -6.8965517797E+00   -6.8571429086E+00
   -6.8181818659E+00   -6.7796610614E+00   -6.7415730752E+00   -6.7039106534E+00
   -6.6666667032E+00   -6.6298342886E+00   -6.5934066260E+00   -6.5573770801E+00
   -6.5217391599E+00   -6.4864865146E+00   -6.4516129302E+00   -6.4171123253E+00
   -6.3829787483E+00   -6.3492063733E+00   -6.3157894970E+00   -6.2827225357E+00
   -6.2500000220E+00   -6.2176166018E+00   -6.1855670313E+00   -6.1538461743E+00
   -6.1224489997E+00   -6.0913705781E+00   -6.0606060800E+00   -6.0301507729E+00
   -6.0000000188E+00   -5.9701492723E+00   -5.9405940778E+00   -5.9113300674E+00
   -5.8823529591E+00   -5.8536585544E+00   -5.8252427361E+00   -5.7971014668E+00
   -5.7692307866E+00   -5.7416268115E+00   -5.7142857314E+00   -5.6872038085E+00
   -5.6603773754E+00   -5.6338028338E+00   -5.6074766523E+00   -5.5813953655E+00
   -5.5555555722E+00   -5.5299539336E+00   -5.5045871724E+00   -5.4794520712E+00
   -5.4545454709E+00   -5.4298642697E+00   -5.4054054217E+00   -5.3811659355E+00
   -5.3571428733E+00   -5.3333333494E+00   -5.3097345293E+00   -5.2863436283E+00
   -5.2631579107E+00   -5.2401746884E+00   -5.2173913202E+00   -5.1948052107E+00
   -5.1724138089E+00   -5.1502146081E+00   -5.1282051439E+00   -5.1063829944E+00
   -5.0847457784E+00   -5.0632911549E+00   -5.0420168223E+00   -5.0209205177E+00
   -5.0000000155E+00   -4.9792531275E+00   -4.9586777014E+00   -4.9382716204E+00
   -4.9180328023E+00   -4.8979591991E+00   -4.8780487959E+00   -4.8582996105E+00
   -4.8387096927E+00   -4.8192771237E+00   -4.8000000153E+00   -4.7808765093E+00
   -4.7619047771E+00   -4.7430830191E+00   -4.7244094640E+00   -4.7058823681E+00
   -4.6875000151E+00   -4.6692607155E+00   -4.6511628058E+00   -4.6332046482E+00
   -4.6153846304E+00   -4.5977011644E+00   -4.5801526867E+00   -4.5627376575E+00
   -4.5454545604E+00   -4.5283019017E+00   -4.5112782104E+00   -4.4943820373E+00
   -4.4776119551E+00   -4.4609665576E+00   -4.4444444592E+00   -4.4280442952E+00
   -4.4117647206E+00   -4.3956044103E+00   -4.3795620585E+00   -4.3636363783E+00
   -4.3478261016E+00   -4.3321299786E+00   -4.3165467772E+00   -4.3010752834E+00
   -4.2857143003E+00   -4.2704626480E+00   -4.2553191635E+00   -4.2402827001E+00
   -4.2253521272E+00   -4.2105263303E+00   -4.1958042103E+00   -4.1811846835E+00
   -4.1666666811E+00   -4.1522491494E+00   -4.1379310489E+00   -4.1237113546E+00
   -4.1095890555E+00   -4.0955631543E+00   -4.0816326674E+00   -4.0677966245E+00
   -4.0540540684E+00   -4.0404040547E+00   -4.0268456519E+00   -4.0133779407E+00
   -4.0000000142E+00   -3.9867109777E+00   -3.9735099480E+00   -3.9603960538E+00
   -3.9473684352E+00   -3.9344262437E+00   -3.9215686416E+00   -3.9087948024E+00
   -3.8961039102E+00   -3.8834951597E+00   -3.8709677560E+00   -3.8585209144E+00
   -3.8461538602E+00   -3.8338658287E+00   -3.8216560650E+00   -3.8095238235E+00
   -3.7974683684E+00   -3.7854889729E+00   -3.7735849196E+00   -3.7617554998E+00
   -3.7500000139E+00   -3.7383177709E+00   -3.7267080884E+00   -3.7151702925E+00
   -3.7037037175E+00   -3.6923077061E+00   -3.6809816089E+00   -3.6697247844E+00
   -3.6585365991E+00   -3.6474164271E+00   -3.6363636501E+00   -3.6253776572E+00
   -3.6144578450E+00   -3.6036036173E+00   -3.5928143849E+00   -3.5820895659E+00
   -3.5714285851E+00   -3.5608308741E+00   -3.5502958716E+00   -3.5398230224E+00
   -3.5294117783E+00   -3.5190615971E+00   -3.5087719433E+00   -3.4985422875E+00
   -3.4883721065E+00   -3.4782608830E+00   -3.4682081059E+00   -3.4582132699E+00
   -3.4482758755E+00   -3.4383954289E+00   -3.4285714419E+00   -3.4188034321E+00
   -3.4090909224E+00   -3.3994334411E+00   -3.3898305218E+00   -3.3802817034E+00
   -3.3707865301E+00   -3.3613445510E+00   -3.3519553205E+00   -3.3426183976E+00
   -3.3333333465E+00   -3.3240997361E+00   -3.3149171402E+00   -3.3057851371E+00
   -3.2967033098E+00   -3.2876712459E+00   -3.2786885376E+00   -3.2697547814E+00
   -3.2608695782E+00   -3.2520325333E+00   -3.2432432562E+00   -3.2345013606E+00
   -3.2258064645E+00   -3.2171581898E+00   -3.2085561626E+00   -3.2000000128E+00
   -3.1914893745E+00   -3.1830238855E+00   -3.1746031874E+00   -3.1662269257E+00
   -3.1578947496E+00   -3.1496063119E+00   -3.1413612692E+00   -3.1331592816E+00
   -3.1250000126E+00   -3.1168831295E+00   -3.1088083028E+00   -3.1007752064E+00
   -3.0927835177E+00   -3.0848329174E+00   -3.0769230894E+00   -3.0690537209E+00
   -3.0612245023E+00   -3.0534351269E+00   -3.0456852916E+00   -3.0379746959E+00
   -3.0303030427E+00   -3.0226700375E+00   -3.0150753892E+00   -3.0075188093E+00
   -3.0000000123E+00   -2.9925187155E+00   -2.9850746391E+00   -2.9776675060E+00
   -2.9702970419E+00   -2.9629629751E+00   -2.9556650368E+00   -2.9484029605E+00
   -2.9411764827E+00   -2.9339853421E+00   -2.9268292803E+00   -2.9197080412E+00
   -2.9126213712E+00   -2.9055690192E+00   -2.8985507366E+00   -2.8915662770E+00
   -2.8846153965E+00   -2.8776978536E+00   -2.8708134090E+00   -2.8639618256E+00
   -2.8571428689E+00   -2.8503563063E+00   -2.8436019075E+00   -2.8368794443E+00
   -2.8301886909E+00   -2.8235294234E+00   -2.8169014201E+00   -2.8103044612E+00
   -2.8037383293E+00   -2.7972028088E+00   -2.7906976859E+00   -2.7842227493E+00
   -2.7777777892E+00   -2.7713625980E+00   -2.7649769699E+00   -2.7586207010E+00