<UPF version="2.0.1">
  <PP_INFO>

 This pseudopotential file has been produced using the code
 ONCVPSP  (Optimized Norm-Conservinng Vanderbilt PSeudopotential)
 scalar-relativistic version 3.3.1 12/12/2017 by D. R. Hamann
 The code is available through a link at URL www.mat-simresearch.com.
 Documentation with the package provides a full discription of the
 input data below.


 While it is not required under the terms of the GNU GPL, it is
 suggested that you cite D. R. Hamann, Phys. Rev. B 88, 085117 (2013)
 in any publication using these pseudopotentials.

    <PP_INPUTFILE>
# ATOM AND REFERENCE CONFIGURATION
# atsym  z   nc   nv     iexc    psfile
  Ar 18.00    3    2       3      upf
#
#   n    l    f        energy (Ha)
    1    0    2.00
    2    0    2.00
    2    1    6.00
    3    0    2.00
    3    1    6.00
#
# PSEUDOPOTENTIAL AND OPTIMIZATION
# lmax
    1
#
#   l,   rc,      ep,       ncon, nbas, qcut
    0   2.64980  -0.89166    5    8   7.97831
    1   1.77414  -0.38170    5    8   7.45116
#
# LOCAL POTENTIAL
# lloc, lpopt,  rc(5),   dvloc0
    4    5   1.40453      0.00000
#
# VANDERBILT-KLEINMAN-BYLANDER PROJECTORs
# l, nproj, debl
    0    2   0.88177
    1    2   3.20739
#
# MODEL CORE CHARGE
# icmod, fcfact, rcfact
    0   0.00000   0.00000
#
# LOG DERIVATIVE ANALYSIS
# epsh1, epsh2, depsh
   -5.00    3.00    0.02
#
# OUTPUT GRID
# rlmax, drl
    6.00    0.01
#
# TEST CONFIGURATIONS
# ncnf
    0
# nvcnf
#   n    l    f
    </PP_INPUTFILE>
  </PP_INFO>
  <!--                               -->
  <!-- END OF HUMAN READABLE SECTION -->
  <!--                               -->
    <PP_HEADER
       generated="Generated using ONCVPSP code by D. R. Hamann"
       author="anonymous"
       date="220414"
       comment=""
       element="Ar"
       pseudo_type="NC"
       relativistic="scalar"
       is_ultrasoft="F"
       is_paw="F"
       is_coulomb="F"
       has_so="F"
       has_wfc="F"
       has_gipaw="F"
       core_correction="F"
       functional="PZ"
       z_valence="    8.00"
       total_psenergy="  -4.21995991455E+01"
       rho_cutoff="   9.25000000000E+00"
       l_max="1"
       l_local="-1"
       mesh_size="   926"
       number_of_wfc="2"
       number_of_proj="4"/>
 <PP_MESH>
   <PP_R type="real"  size=" 926" columns="8">
    0.0000    0.0100    0.0200    0.0300    0.0400    0.0500    0.0600    0.0700
    0.0800    0.0900    0.1000    0.1100    0.1200    0.1300    0.1400    0.1500
    0.1600    0.1700    0.1800    0.1900    0.2000    0.2100    0.2200    0.2300
    0.2400    0.2500    0.2600    0.2700    0.2800    0.2900    0.3000    0.3100
    0.3200    0.3300    0.3400    0.3500    0.3600    0.3700    0.3800    0.3900
    0.4000    0.4100    0.4200    0.4300    0.4400    0.4500    0.4600    0.4700
    0.4800    0.4900    0.5000    0.5100    0.5200    0.5300    0.5400    0.5500
    0.5600    0.5700    0.5800    0.5900    0.6000    0.6100    0.6200    0.6300
    0.6400    0.6500    0.6600    0.6700    0.6800    0.6900    0.7000    0.7100
    0.7200    0.7300    0.7400    0.7500    0.7600    0.7700    0.7800    0.7900
    0.8000    0.8100    0.8200    0.8300    0.8400    0.8500    0.8600    0.8700
    0.8800    0.8900    0.9000    0.9100    0.9200    0.9300    0.9400    0.9500
    0.9600    0.9700    0.9800    0.9900    1.0000    1.0100    1.0200    1.0300
    1.0400    1.0500    1.0600    1.0700    1.0800    1.0900    1.1000    1.1100
    1.1200    1.1300    1.1400    1.1500    1.1600    1.1700    1.1800    1.1900
    1.2000    1.2100    1.2200    1.2300    1.2400    1.2500    1.2600    1.2700
    1.2800    1.2900    1.3000    1.3100    1.3200    1.3300    1.3400    1.3500
    1.3600    1.3700    1.3800    1.3900    1.4000    1.4100    1.4200    1.4300
    1.4400    1.4500    1.4600    1.4700    1.4800    1.4900    1.5000    1.5100
    1.5200    1.5300    1.5400    1.5500    1.5600    1.5700    1.5800    1.5900
    1.6000    1.6100    1.6200    1.6300    1.6400    1.6500    1.6600    1.6700
    1.6800    1.6900    1.7000    1.7100    1.7200    1.7300    1.7400    1.7500
    1.7600    1.7700    1.7800    1.7900    1.8000    1.8100    1.8200    1.8300
    1.8400    1.8500    1.8600    1.8700    1.8800    1.8900    1.9000    1.9100
    1.9200    1.9300    1.9400    1.9500    1.9600    1.9700    1.9800    1.9900
    2.0000    2.0100    2.0200    2.0300    2.0400    2.0500    2.0600    2.0700
    2.0800    2.0900    2.1000    2.1100    2.1200    2.1300    2.1400    2.1500
    2.1600    2.1700    2.1800    2.1900    2.2000    2.2100    2.2200    2.2300
    2.2400    2.2500    2.2600    2.2700    2.2800    2.2900    2.3000    2.3100
    2.3200    2.3300    2.3400    2.3500    2.3600    2.3700    2.3800    2.3900
    2.4000    2.4100    2.4200    2.4300    2.4400    2.4500    2.4600    2.4700
    2.4800    2.4900    2.5000    2.5100    2.5200    2.5300    2.5400    2.5500
    2.5600    2.5700    2.5800    2.5900    2.6000    2.6100    2.6200    2.6300
    2.6400    2.6500    2.6600    2.6700    2.6800    2.6900    2.7000    2.7100
    2.7200    2.7300    2.7400    2.7500    2.7600    2.7700    2.7800    2.7900
    2.8000    2.8100    2.8200    2.8300    2.8400    2.8500    2.8600    2.8700
    2.8800    2.8900    2.9000    2.9100    2.9200    2.9300    2.9400    2.9500
    2.9600    2.9700    2.9800    2.9900    3.0000    3.0100    3.0200    3.0300
    3.0400    3.0500    3.0600    3.0700    3.0800    3.0900    3.1000    3.1100
    3.1200    3.1300    3.1400    3.1500    3.1600    3.1700    3.1800    3.1900
    3.2000    3.2100    3.2200    3.2300    3.2400    3.2500    3.2600    3.2700
    3.2800    3.2900    3.3000    3.3100    3.3200    3.3300    3.3400    3.3500
    3.3600    3.3700    3.3800    3.3900    3.4000    3.4100    3.4200    3.4300
    3.4400    3.4500    3.4600    3.4700    3.4800    3.4900    3.5000    3.5100
    3.5200    3.5300    3.5400    3.5500    3.5600    3.5700    3.5800    3.5900
    3.6000    3.6100    3.6200    3.6300    3.6400    3.6500    3.6600    3.6700
    3.6800    3.6900    3.7000    3.7100    3.7200    3.7300    3.7400    3.7500
    3.7600    3.7700    3.7800    3.7900    3.8000    3.8100    3.8200    3.8300
    3.8400    3.8500    3.8600    3.8700    3.8800    3.8900    3.9000    3.9100
    3.9200    3.9300    3.9400    3.9500    3.9600    3.9700    3.9800    3.9900
    4.0000    4.0100    4.0200    4.0300    4.0400    4.0500    4.0600    4.0700
    4.0800    4.0900    4.1000    4.1100    4.1200    4.1300    4.1400    4.1500
    4.1600    4.1700    4.1800    4.1900    4.2000    4.2100    4.2200    4.2300
    4.2400    4.2500    4.2600    4.2700    4.2800    4.2900    4.3000    4.3100
    4.3200    4.3300    4.3400    4.3500    4.3600    4.3700    4.3800    4.3900
    4.4000    4.4100    4.4200    4.4300    4.4400    4.4500    4.4600    4.4700
    4.4800    4.4900    4.5000    4.5100    4.5200    4.5300    4.5400    4.5500
    4.5600    4.5700    4.5800    4.5900    4.6000    4.6100    4.6200    4.6300
    4.6400    4.6500    4.6600    4.6700    4.6800    4.6900    4.7000    4.7100
    4.7200    4.7300    4.7400    4.7500    4.7600    4.7700    4.7800    4.7900
    4.8000    4.8100    4.8200    4.8300    4.8400    4.8500    4.8600    4.8700
    4.8800    4.8900    4.9000    4.9100    4.9200    4.9300    4.9400    4.9500
    4.9600    4.9700    4.9800    4.9900    5.0000    5.0100    5.0200    5.0300
    5.0400    5.0500    5.0600    5.0700    5.0800    5.0900    5.1000    5.1100
    5.1200    5.1300    5.1400    5.1500    5.1600    5.1700    5.1800    5.1900
    5.2000    5.2100    5.2200    5.2300    5.2400    5.2500    5.2600    5.2700
    5.2800    5.2900    5.3000    5.3100    5.3200    5.3300    5.3400    5.3500
    5.3600    5.3700    5.3800    5.3900    5.4000    5.4100    5.4200    5.4300
    5.4400    5.4500    5.4600    5.4700    5.4800    5.4900    5.5000    5.5100
    5.5200    5.5300    5.5400    5.5500    5.5600    5.5700    5.5800    5.5900
    5.6000    5.6100    5.6200    5.6300    5.6400    5.6500    5.6600    5.6700
    5.6800    5.6900    5.7000    5.7100    5.7200    5.7300    5.7400    5.7500
    5.7600    5.7700    5.7800    5.7900    5.8000    5.8100    5.8200    5.8300
    5.8400    5.8500    5.8600    5.8700    5.8800    5.8900    5.9000    5.9100
    5.9200    5.9300    5.9400    5.9500    5.9600    5.9700    5.9800    5.9900
    6.0000    6.0100    6.0200    6.0300    6.0400    6.0500    6.0600    6.0700
    6.0800    6.0900    6.1000    6.1100    6.1200    6.1300    6.1400    6.1500
    6.1600    6.1700    6.1800    6.1900    6.2000    6.2100    6.2200    6.2300
    6.2400    6.2500    6.2600    6.2700    6.2800    6.2900    6.3000    6.3100
    6.3200    6.3300    6.3400    6.3500    6.3600    6.3700    6.3800    6.3900
    6.4000    6.4100    6.4200    6.4300    6.4400    6.4500    6.4600    6.4700
    6.4800    6.4900    6.5000    6.5100    6.5200    6.5300    6.5400    6.5500
    6.5600    6.5700    6.5800    6.5900    6.6000    6.6100    6.6200    6.6300
    6.6400    6.6500    6.6600    6.6700    6.6800    6.6900    6.7000    6.7100
    6.7200    6.7300    6.7400    6.7500    6.7600    6.7700    6.7800    6.7900
    6.8000    6.8100    6.8200    6.8300    6.8400    6.8500    6.8600    6.8700
    6.8800    6.8900    6.9000    6.9100    6.9200    6.9300    6.9400    6.9500
    6.9600    6.9700    6.9800    6.9900    7.0000    7.0100    7.0200    7.0300
    7.0400    7.0500    7.0600    7.0700    7.0800    7.0900    7.1000    7.1100
    7.1200    7.1300    7.1400    7.1500    7.1600    7.1700    7.1800    7.1900
    7.2000    7.2100    7.2200    7.2300    7.2400    7.2500    7.2600    7.2700
    7.2800    7.2900    7.3000    7.3100    7.3200    7.3300    7.3400    7.3500
    7.3600    7.3700    7.3800    7.3900    7.4000    7.4100    7.4200    7.4300
    7.4400    7.4500    7.4600    7.4700    7.4800    7.4900    7.5000    7.5100
    7.5200    7.5300    7.5400    7.5500    7.5600    7.5700    7.5800    7.5900
    7.6000    7.6100    7.6200    7.6300    7.6400    7.6500    7.6600    7.6700
    7.6800    7.6900    7.7000    7.7100    7.7200    7.7300    7.7400    7.7500
    7.7600    7.7700    7.7800    7.7900    7.8000    7.8100    7.8200    7.8300
    7.8400    7.8500    7.8600    7.8700    7.8800    7.8900    7.9000    7.9100
    7.9200    7.9300    7.9400    7.9500    7.9600    7.9700    7.9800    7.9900
    8.0000    8.0100    8.0200    8.0300    8.0400    8.0500    8.0600    8.0700
    8.0800    8.0900    8.1000    8.1100    8.1200    8.1300    8.1400    8.1500
    8.1600    8.1700    8.1800    8.1900    8.2000    8.2100    8.2200    8.2300
    8.2400    8.2500    8.2600    8.2700    8.2800    8.2900    8.3000    8.3100
    8.3200    8.3300    8.3400    8.3500    8.3600    8.3700    8.3800    8.3900
    8.4000    8.4100    8.4200    8.4300    8.4400    8.4500    8.4600    8.4700
    8.4800    8.4900    8.5000    8.5100    8.5200    8.5300    8.5400    8.5500
    8.5600    8.5700    8.5800    8.5900    8.6000    8.6100    8.6200    8.6300
    8.6400    8.6500    8.6600    8.6700    8.6800    8.6900    8.7000    8.7100
    8.7200    8.7300    8.7400    8.7500    8.7600    8.7700    8.7800    8.7900
    8.8000    8.8100    8.8200    8.8300    8.8400    8.8500    8.8600    8.8700
    8.8800    8.8900    8.9000    8.9100    8.9200    8.9300    8.9400    8.9500
    8.9600    8.9700    8.9800    8.9900    9.0000    9.0100    9.0200    9.0300
    9.0400    9.0500    9.0600    9.0700    9.0800    9.0900    9.1000    9.1100
    9.1200    9.1300    9.1400    9.1500    9.1600    9.1700    9.1800    9.1900
    9.2000    9.2100    9.2200    9.2300    9.2400    9.2500
   </PP_R>
   <PP_RAB type="real"  size=" 926" columns="8">
    0.0100    0.0100    0.0100    0.0100    0.0100    0.0100    0.0100    0.0100
    0.0100    0.0100    0.0100    0.0100    0.0100    0.0100    0.0100    0.0100
    0.0100    0.0100    0.0100    0.0100    0.0100    0.0100    0.0100    0.0100
    0.0100    0.0100    0.0100    0.0100    0.0100    0.0100    0.0100    0.0100
    0.0100    0.0100    0.0100    0.0100    0.0100    0.0100    0.0100    0.0100
    0.0100    0.0100    0.0100    0.0100    0.0100    0.0100    0.0100    0.0100
    0.0100    0.0100    0.0100    0.0100    0.0100    0.0100    0.0100    0.0100
    0.0100    0.0100    0.0100    0.0100    0.0100    0.0100    0.0100    0.0100
    0.0100    0.0100    0.0100    0.0100    0.0100    0.0100    0.0100    0.0100
    0.0100    0.0100    0.0100    0.0100    0.0100    0.0100    0.0100    0.0100
    0.0100    0.0100    0.0100    0.0100    0.0100    0.0100    0.0100    0.0100
    0.0100    0.0100    0.0100    0.0100    0.0100    0.0100    0.0100    0.0100
    0.0100    0.0100    0.0100    0.0100    0.0100    0.0100    0.0100    0.0100
    0.0100    0.0100    0.0100    0.0100    0.0100    0.0100    0.0100    0.0100
    0.0100    0.0100    0.0100    0.0100    0.0100    0.0100    0.0100    0.0100
    0.0100    0.0100    0.0100    0.0100    0.0100    0.0100    0.0100    0.0100
    0.0100    0.0100    0.0100    0.0100    0.0100    0.0100    0.0100    0.0100
    0.0100    0.0100    0.0100    0.0100    0.0100    0.0100    0.0100    0.0100
    0.0100    0.0100    0.0100    0.0100    0.0100    0.0100    0.0100    0.0100
    0.0100    0.0100    0.0100    0.0100    0.0100    0.0100    0.0100    0.0100
    0.0100    0.0100    0.0100    0.0100    0.0100    0.0100    0.0100    0.0100
    0.0100    0.0100    0.0100    0.0100    0.0100    0.0100    0.0100    0.0100
    0.0100    0.0100    0.0100    0.0100    0.0100    0.0100    0.0100    0.0100
    0.0100    0.0100    0.0100    0.0100    0.0100    0.0100    0.0100    0.0100
    0.0100    0.0100    0.0100    0.0100    0.0100    0.0100    0.0100    0.0100
    0.0100    0.0100    0.0100    0.0100    0.0100    0.0100    0.0100    0.0100
    0.0100    0.0100    0.0100    0.0100    0.0100    0.0100    0.0100    0.0100
    0.0100    0.0100    0.0100    0.0100    0.0100    0.0100    0.0100    0.0100
    0.0100    0.0100    0.0100    0.0100    0.0100    0.0100    0.0100    0.0100
    0.0100    0.0100    0.0100    0.0100    0.0100    0.0100    0.0100    0.0100
    0.0100    0.0100    0.0100    0.0100    0.0100    0.0100    0.0100    0.0100
    0.0100    0.0100    0.0100    0.0100    0.0100    0.0100    0.0100    0.0100
    0.0100    0.0100    0.0100    0.0100    0.0100    0.0100    0.0100    0.0100
    0.0100    0.0100    0.0100    0.0100    0.0100    0.0100    0.0100    0.0100
    0.0100    0.0100    0.0100    0.0100    0.0100    0.0100    0.0100    0.0100
    0.0100    0.0100    0.0100    0.0100    0.0100    0.0100    0.0100    0.0100
    0.0100    0.0100    0.0100    0.0100    0.0100    0.0100    0.0100    0.0100
    0.0100    0.0100    0.0100    0.0100    0.0100    0.0100    0.0100    0.0100
    0.0100    0.0100    0.0100    0.0100    0.0100    0.0100    0.0100    0.0100
    0.0100    0.0100    0.0100    0.0100    0.0100    0.0100    0.0100    0.0100
    0.0100    0.0100    0.0100    0.0100    0.0100    0.0100    0.0100    0.0100
    0.0100    0.0100    0.0100    0.0100    0.0100    0.0100    0.0100    0.0100
    0.0100    0.0100    0.0100    0.0100    0.0100    0.0100    0.0100    0.0100
    0.0100    0.0100    0.0100    0.0100    0.0100    0.0100    0.0100    0.0100
    0.0100    0.0100    0.0100    0.0100    0.0100    0.0100    0.0100    0.0100
    0.0100    0.0100    0.0100    0.0100    0.0100    0.0100    0.0100    0.0100
    0.0100    0.0100    0.0100    0.0100    0.0100    0.0100    0.0100    0.0100
    0.0100    0.0100    0.0100    0.0100    0.0100    0.0100    0.0100    0.0100
    0.0100    0.0100    0.0100    0.0100    0.0100    0.0100    0.0100    0.0100
    0.0100    0.0100    0.0100    0.0100    0.0100    0.0100    0.0100    0.0100
    0.0100    0.0100    0.0100    0.0100    0.0100    0.0100    0.0100    0.0100
    0.0100    0.0100    0.0100    0.0100    0.0100    0.0100    0.0100    0.0100
    0.0100    0.0100    0.0100    0.0100    0.0100    0.0100    0.0100    0.0100
    0.0100    0.0100    0.0100    0.0100    0.0100    0.0100    0.0100    0.0100
    0.0100    0.0100    0.0100    0.0100    0.0100    0.0100    0.0100    0.0100
    0.0100    0.0100    0.0100    0.0100    0.0100    0.0100    0.0100    0.0100
    0.0100    0.0100    0.0100    0.0100    0.0100    0.0100    0.0100    0.0100
    0.0100    0.0100    0.0100    0.0100    0.0100    0.0100    0.0100    0.0100
    0.0100    0.0100    0.0100    0.0100    0.0100    0.0100    0.0100    0.0100
    0.0100    0.0100    0.0100    0.0100    0.0100    0.0100    0.0100    0.0100
    0.0100    0.0100    0.0100    0.0100    0.0100    0.0100    0.0100    0.0100
    0.0100    0.0100    0.0100    0.0100    0.0100    0.0100    0.0100    0.0100
    0.0100    0.0100    0.0100    0.0100    0.0100    0.0100    0.0100    0.0100
    0.0100    0.0100    0.0100    0.0100    0.0100    0.0100    0.0100    0.0100
    0.0100    0.0100    0.0100    0.0100    0.0100    0.0100    0.0100    0.0100
    0.0100    0.0100    0.0100    0.0100    0.0100    0.0100    0.0100    0.0100
    0.0100    0.0100    0.0100    0.0100    0.0100    0.0100    0.0100    0.0100
    0.0100    0.0100    0.0100    0.0100    0.0100    0.0100    0.0100    0.0100
    0.0100    0.0100    0.0100    0.0100    0.0100    0.0100    0.0100    0.0100
    0.0100    0.0100    0.0100    0.0100    0.0100    0.0100    0.0100    0.0100
    0.0100    0.0100    0.0100    0.0100    0.0100    0.0100    0.0100    0.0100
    0.0100    0.0100    0.0100    0.0100    0.0100    0.0100    0.0100    0.0100
    0.0100    0.0100    0.0100    0.0100    0.0100    0.0100    0.0100    0.0100
    0.0100    0.0100    0.0100    0.0100    0.0100    0.0100    0.0100    0.0100
    0.0100    0.0100    0.0100    0.0100    0.0100    0.0100    0.0100    0.0100
    0.0100    0.0100    0.0100    0.0100    0.0100    0.0100    0.0100    0.0100
    0.0100    0.0100    0.0100    0.0100    0.0100    0.0100    0.0100    0.0100
    0.0100    0.0100    0.0100    0.0100    0.0100    0.0100    0.0100    0.0100
    0.0100    0.0100    0.0100    0.0100    0.0100    0.0100    0.0100    0.0100
    0.0100    0.0100    0.0100    0.0100    0.0100    0.0100    0.0100    0.0100
    0.0100    0.0100    0.0100    0.0100    0.0100    0.0100    0.0100    0.0100
    0.0100    0.0100    0.0100    0.0100    0.0100    0.0100    0.0100    0.0100
    0.0100    0.0100    0.0100    0.0100    0.0100    0.0100    0.0100    0.0100
    0.0100    0.0100    0.0100    0.0100    0.0100    0.0100    0.0100    0.0100
    0.0100    0.0100    0.0100    0.0100    0.0100    0.0100    0.0100    0.0100
    0.0100    0.0100    0.0100    0.0100    0.0100    0.0100    0.0100    0.0100
    0.0100    0.0100    0.0100    0.0100    0.0100    0.0100    0.0100    0.0100
    0.0100    0.0100    0.0100    0.0100    0.0100    0.0100    0.0100    0.0100
    0.0100    0.0100    0.0100    0.0100    0.0100    0.0100    0.0100    0.0100
    0.0100    0.0100    0.0100    0.0100    0.0100    0.0100    0.0100    0.0100
    0.0100    0.0100    0.0100    0.0100    0.0100    0.0100    0.0100    0.0100
    0.0100    0.0100    0.0100    0.0100    0.0100    0.0100    0.0100    0.0100
    0.0100    0.0100    0.0100    0.0100    0.0100    0.0100    0.0100    0.0100
    0.0100    0.0100    0.0100    0.0100    0.0100    0.0100    0.0100    0.0100
    0.0100    0.0100    0.0100    0.0100    0.0100    0.0100    0.0100    0.0100
    0.0100    0.0100    0.0100    0.0100    0.0100    0.0100    0.0100    0.0100
    0.0100    0.0100    0.0100    0.0100    0.0100    0.0100    0.0100    0.0100
    0.0100    0.0100    0.0100    0.0100    0.0100    0.0100    0.0100    0.0100
    0.0100    0.0100    0.0100    0.0100    0.0100    0.0100    0.0100    0.0100
    0.0100    0.0100    0.0100    0.0100    0.0100    0.0100    0.0100    0.0100
    0.0100    0.0100    0.0100    0.0100    0.0100    0.0100    0.0100    0.0100
    0.0100    0.0100    0.0100    0.0100    0.0100    0.0100    0.0100    0.0100
    0.0100    0.0100    0.0100    0.0100    0.0100    0.0100    0.0100    0.0100
    0.0100    0.0100    0.0100    0.0100    0.0100    0.0100    0.0100    0.0100
    0.0100    0.0100    0.0100    0.0100    0.0100    0.0100    0.0100    0.0100
    0.0100    0.0100    0.0100    0.0100    0.0100    0.0100    0.0100    0.0100
    0.0100    0.0100    0.0100    0.0100    0.0100    0.0100    0.0100    0.0100
    0.0100    0.0100    0.0100    0.0100    0.0100    0.0100    0.0100    0.0100
    0.0100    0.0100    0.0100    0.0100    0.0100    0.0100    0.0100    0.0100
    0.0100    0.0100    0.0100    0.0100    0.0100    0.0100    0.0100    0.0100
    0.0100    0.0100    0.0100    0.0100    0.0100    0.0100    0.0100    0.0100
    0.0100    0.0100    0.0100    0.0100    0.0100    0.0100    0.0100    0.0100
    0.0100    0.0100    0.0100    0.0100    0.0100    0.0100    0.0100    0.0100
    0.0100    0.0100    0.0100    0.0100    0.0100    0.0100    0.0100    0.0100
    0.0100    0.0100    0.0100    0.0100    0.0100    0.0100    0.0100    0.0100
    0.0100    0.0100    0.0100    0.0100    0.0100    0.0100
   </PP_RAB>
 </PP_MESH>
  <PP_LOCAL type="real"  size=" 926" columns="4">
   -2.5272945799E+01   -2.5271323915E+01   -2.5266462735E+01   -2.5258375600E+01
   -2.5247084305E+01   -2.5232618481E+01   -2.5215014791E+01   -2.5194315989E+01
   -2.5170569893E+01   -2.5143828335E+01   -2.5114146137E+01   -2.5081580142E+01
   -2.5046188343E+01   -2.5008029119E+01   -2.4967160593E+01   -2.4923640116E+01
   -2.4877523863E+01   -2.4828866535E+01   -2.4777721164E+01   -2.4724138988E+01
   -2.4668169404E+01   -2.4609859966E+01   -2.4549256435E+01   -2.4486402848E+01
   -2.4421341627E+01   -2.4354113683E+01   -2.4284758545E+01   -2.4213314487E+01
   -2.4139818655E+01   -2.4064307194E+01   -2.3986815368E+01   -2.3907377675E+01
   -2.3826027963E+01   -2.3742799521E+01   -2.3657725187E+01   -2.3570837423E+01
   -2.3482168406E+01   -2.3391750094E+01   -2.3299614300E+01   -2.3205792747E+01
   -2.3110317124E+01   -2.3013219142E+01   -2.2914530570E+01   -2.2814283282E+01
   -2.2712509291E+01   -2.2609240779E+01   -2.2504511046E+01   -2.2398359763E+01
   -2.2290820186E+01   -2.2181860576E+01   -2.2071571271E+01   -2.1959986126E+01
   -2.1847139076E+01   -2.1733064531E+01   -2.1617797233E+01   -2.1501372261E+01
   -2.1383825040E+01   -2.1265191344E+01   -2.1145507299E+01   -2.1024809386E+01
   -2.0903134439E+01   -2.0780519645E+01   -2.0657002542E+01   -2.0532621017E+01
   -2.0407413297E+01   -2.0281417946E+01   -2.0154673860E+01   -2.0027220252E+01
   -1.9899096650E+01   -1.9770342882E+01   -1.9640999063E+01   -1.9511105587E+01
   -1.9380703110E+01   -1.9249832531E+01   -1.9118534985E+01   -1.8986851814E+01
   -1.8854824559E+01   -1.8722494931E+01   -1.8589904798E+01   -1.8457096156E+01
   -1.8324111111E+01   -1.8190991853E+01   -1.8057780628E+01   -1.7924519716E+01
   -1.7791251400E+01   -1.7658017941E+01   -1.7524861545E+01   -1.7391824334E+01
   -1.7258948315E+01   -1.7126275347E+01   -1.6993847109E+01   -1.6861705063E+01
   -1.6729890423E+01   -1.6598444117E+01   -1.6467406750E+01   -1.6336818570E+01
   -1.6206719425E+01   -1.6077148729E+01   -1.5948145423E+01   -1.5819747932E+01
   -1.5691994127E+01   -1.5564921285E+01   -1.5438566047E+01   -1.5312964376E+01
   -1.5188151518E+01   -1.5064161955E+01   -1.4941029370E+01   -1.4818786596E+01
   -1.4697465581E+01   -1.4577097338E+01   -1.4457711908E+01   -1.4339338313E+01
   -1.4222004516E+01   -1.4105737373E+01   -1.3990562594E+01   -1.3876504697E+01
   -1.3763586967E+01   -1.3651831411E+01   -1.3541258715E+01   -1.3431888199E+01
   -1.3323737778E+01   -1.3216823915E+01   -1.3111161581E+01   -1.3006764207E+01
   -1.2903643647E+01   -1.2801810130E+01   -1.2701272221E+01   -1.2602036775E+01
   -1.2504108894E+01   -1.2407491886E+01   -1.2312187342E+01   -1.2218194099E+01
   -1.2125510610E+01   -1.2034137559E+01   -1.1944053121E+01   -1.1855231370E+01
   -1.1767686671E+01   -1.1681419385E+01   -1.1596404539E+01   -1.1512624343E+01
   -1.1430061160E+01   -1.1348692264E+01   -1.1268492696E+01   -1.1189436198E+01
   -1.1111497748E+01   -1.1034653331E+01   -1.0958879397E+01   -1.0884153123E+01
   -1.0810452326E+01   -1.0737755459E+01   -1.0666041581E+01   -1.0595290342E+01
   -1.0525481963E+01   -1.0456597217E+01   -1.0388617411E+01   -1.0321524370E+01
   -1.0255300417E+01   -1.0189928359E+01   -1.0125391471E+01   -1.0061673479E+01
   -9.9987585451E+00   -9.9366312533E+00   -9.8752765944E+00   -9.8146799522E+00
   -9.7548270903E+00   -9.6957041385E+00   -9.6372975802E+00   -9.5795942405E+00
   -9.5225812742E+00   -9.4662461542E+00   -9.4105766612E+00   -9.3555608733E+00
   -9.3011871557E+00   -9.2474441520E+00   -9.1943207749E+00   -9.1418061985E+00
   -9.0898898498E+00   -9.0385614024E+00   -8.9878107691E+00   -8.9376280961E+00
   -8.8880037571E+00   -8.8389283477E+00   -8.7903926787E+00   -8.7423877709E+00
   -8.6949048481E+00   -8.6479353315E+00   -8.6014708347E+00   -8.5555031585E+00
   -8.5100242855E+00   -8.4650263751E+00   -8.4205017583E+00   -8.3764429338E+00
   -8.3328425625E+00   -8.2896934637E+00   -8.2469886107E+00   -8.2047211262E+00
   -8.1628842788E+00   -8.1214714788E+00   -8.0804762744E+00   -8.0398923481E+00
   -7.9997135129E+00   -7.9599337092E+00   -7.9205470008E+00   -7.8815475724E+00
   -7.8429297258E+00   -7.8046878772E+00   -7.7668165541E+00   -7.7293103921E+00
   -7.6921641327E+00   -7.6553726200E+00   -7.6189307984E+00   -7.5828337100E+00
   -7.5470764918E+00   -7.5116543739E+00   -7.4765626764E+00   -7.4417968079E+00
   -7.4073522627E+00   -7.3732246190E+00   -7.3394095368E+00   -7.3059027558E+00
   -7.2727000935E+00   -7.2397974435E+00   -7.2071907732E+00   -7.1748761226E+00
   -7.1428496022E+00   -7.1111073918E+00   -7.0796457380E+00   -7.0484609538E+00
   -7.0175494161E+00   -6.9869075649E+00   -6.9565319013E+00   -6.9264189869E+00
   -6.8965654415E+00   -6.8669679427E+00   -6.8376232240E+00   -6.8085280739E+00
   -6.7796793348E+00   -6.7510739015E+00   -6.7227087202E+00   -6.6945807878E+00
   -6.6666871502E+00   -6.6390249020E+00   -6.6115911847E+00   -6.5843831864E+00
   -6.5573981407E+00   -6.5306333255E+00   -6.5040860624E+00   -6.4777537158E+00
   -6.4516336920E+00   -6.4257234383E+00   -6.4000204425E+00   -6.3745222316E+00
   -6.3492263717E+00   -6.3241304667E+00   -6.2992321578E+00   -6.2745291230E+00
   -6.2500190761E+00   -6.2256997659E+00   -6.2015689762E+00   -6.1776245246E+00
   -6.1538642618E+00   -6.1302860715E+00   -6.1068878695E+00   -6.0836676029E+00
   -6.0606232501E+00   -6.0377528196E+00   -6.0150543500E+00   -5.9925259091E+00
   -5.9701655935E+00   -5.9479715281E+00   -5.9259418657E+00   -5.9040747862E+00
   -5.8823684963E+00   -5.8608212290E+00   -5.8394312432E+00   -5.8181968231E+00
   -5.7971162777E+00   -5.7761879403E+00   -5.7554101684E+00   -5.7347813431E+00
   -5.7142998683E+00   -5.6939641709E+00   -5.6737727001E+00   -5.6537239268E+00
   -5.6338163438E+00   -5.6140484647E+00   -5.5944188240E+00   -5.5749259769E+00
   -5.5555684981E+00   -5.5363449827E+00   -5.5172540446E+00   -5.4982943170E+00
   -5.4794644520E+00   -5.4607631198E+00   -5.4421890088E+00   -5.4237408252E+00
   -5.4054172927E+00   -5.3872171522E+00   -5.3691391615E+00   -5.3511820949E+00
   -5.3333447432E+00   -5.3156259132E+00   -5.2980244275E+00   -5.2805391243E+00
   -5.2631688569E+00   -5.2459124939E+00   -5.2287689186E+00   -5.2117370288E+00
   -5.1948157365E+00   -5.1780039681E+00   -5.1613006636E+00   -5.1447047767E+00
   -5.1282152745E+00   -5.1118311374E+00   -5.0955513587E+00   -5.0793749444E+00
   -5.0633009133E+00   -5.0473282963E+00   -5.0314561369E+00   -5.0156834901E+00
   -5.0000094230E+00   -4.9844330144E+00   -4.9689533544E+00   -4.9535695443E+00
   -4.9382806966E+00   -4.9230859348E+00   -4.9079843931E+00   -4.8929752161E+00
   -4.8780575590E+00   -4.8632305874E+00   -4.8484934769E+00   -4.8338454128E+00
   -4.8192855907E+00   -4.8048132155E+00   -4.7904275017E+00   -4.7761276733E+00
   -4.7619129634E+00   -4.7477826144E+00   -4.7337358773E+00   -4.7197720124E+00
   -4.7058902883E+00   -4.6920899824E+00   -4.6783703804E+00   -4.6647307766E+00
   -4.6511704733E+00   -4.6376887808E+00   -4.6242850176E+00   -4.6109585100E+00
   -4.5977085918E+00   -4.5845346048E+00   -4.5714358981E+00   -4.5584118283E+00
   -4.5454617593E+00   -4.5325850621E+00   -4.5197811150E+00   -4.5070493031E+00
   -4.4943890186E+00   -4.4817996604E+00   -4.4692806342E+00   -4.4568313521E+00
   -4.4444512330E+00   -4.4321397022E+00   -4.4198961912E+00   -4.4077201378E+00
   -4.3956109861E+00   -4.3835681862E+00   -4.3715911943E+00   -4.3596794723E+00
   -4.3478324883E+00   -4.3360497157E+00   -4.3243306342E+00   -4.3126747285E+00
   -4.3010814892E+00   -4.2895504123E+00   -4.2780809992E+00   -4.2666727565E+00
   -4.2553251962E+00   -4.2440378353E+00   -4.2328101962E+00   -4.2216418061E+00
   -4.2105321971E+00   -4.1994809066E+00   -4.1884874764E+00   -4.1775514534E+00
   -4.1666723890E+00   -4.1558498394E+00   -4.1450833654E+00   -4.1343725323E+00
   -4.1237169099E+00   -4.1131160724E+00   -4.1025695983E+00   -4.0920770705E+00
   -4.0816380762E+00   -4.0712522068E+00   -4.0609190576E+00   -4.0506382284E+00
   -4.0404093227E+00   -4.0302319482E+00   -4.0201057164E+00   -4.0100302428E+00
   -4.0000051468E+00   -3.9900300514E+00   -3.9801045834E+00   -3.9702283735E+00
   -3.9604010559E+00   -3.9506222684E+00   -3.9408916524E+00   -3.9312088528E+00
   -3.9215735181E+00   -3.9119853001E+00   -3.9024438539E+00   -3.8929488383E+00
   -3.8834999151E+00   -3.8740967496E+00   -3.8647390101E+00   -3.8554263682E+00
   -3.8461584988E+00   -3.8369350797E+00   -3.8277557919E+00   -3.8186203194E+00
   -3.8095283493E+00   -3.8004795716E+00   -3.7914736791E+00   -3.7825103678E+00
   -3.7735893364E+00   -3.7647102865E+00   -3.7558729223E+00   -3.7470769510E+00
   -3.7383220824E+00   -3.7296080292E+00   -3.7209345066E+00   -3.7123012324E+00