<UPF version="2.0.1">
  <PP_INFO>

 This pseudopotential file has been produced using the code
 ONCVPSP  (Optimized Norm-Conservinng Vanderbilt PSeudopotential)
 fully-relativistic version 3.3.1 12/12/2017 by D. R. Hamann
 The code is available through a link at URL www.mat-simresearch.com.
 Documentation with the package provides a full discription of the
 input data below.


 While it is not required under the terms of the GNU GPL, it is
 suggested that you cite D. R. Hamann, Phys. Rev. B 88, 085117 (2013)
 in any publication using these pseudopotentials.

    <PP_INPUTFILE>
# ATOM AND REFERENCE CONFIGURATION
# atsym  z   nc   nv     iexc    psfile
  F  9.00    1    2       3      upf
#
#   n    l    f        energy (Ha)
    1    0    2.00
    2    0    2.00
    2    1    5.00
#
# PSEUDOPOTENTIAL AND OPTIMIZATION
# lmax
    1
#
#   l,   rc,     ep,   ncon, nbas, qcut
    0   1.56741  -1.08946    5    8   8.73495
    1   1.64712  -0.41425    5    8   8.69707
#
# LOCAL POTENTIAL
# lloc, lpopt,  rc(5),   dvloc0
    4    5   0.96222      0.00000
#
# VANDERBILT-KLEINMAN-BYLANDER PROJECTORs
# l, nproj, debl
    0    2   1.51125
    1    2   1.53089
#
# MODEL CORE CHARGE
# icmod, fcfact, rcfact
    0   0.00000   0.00000
#
# LOG DERIVATIVE ANALYSIS
# epsh1, epsh2, depsh
   -5.00    3.00    0.02
#
# OUTPUT GRID
# rlmax, drl
    6.00    0.01
#
# TEST CONFIGURATIONS
# ncnf
    0
# nvcnf
#   n    l    f
    </PP_INPUTFILE>
  </PP_INFO>
  <!--                               -->
  <!-- END OF HUMAN READABLE SECTION -->
  <!--                               -->
    <PP_HEADER
       generated="Generated using ONCVPSP code by D. R. Hamann"
       author="anonymous"
       date="220414"
       comment=""
       element="F "
       pseudo_type="NC"
       relativistic="full"
       is_ultrasoft="F"
       is_paw="F"
       is_coulomb="F"
       has_so="T"
       has_wfc="F"
       has_gipaw="F"
       core_correction="F"
       functional="PZ"
       z_valence="    7.00"
       total_psenergy="  -4.73421810079E+01"
       rho_cutoff="   8.23000000000E+00"
       l_max="1"
       l_local="-1"
       mesh_size="   824"
       number_of_wfc="3"
       number_of_proj="6"/>
 <PP_MESH>
   <PP_R type="real"  size=" 824" columns="8">
    0.0000    0.0100    0.0200    0.0300    0.0400    0.0500    0.0600    0.0700
    0.0800    0.0900    0.1000    0.1100    0.1200    0.1300    0.1400    0.1500
    0.1600    0.1700    0.1800    0.1900    0.2000    0.2100    0.2200    0.2300
    0.2400    0.2500    0.2600    0.2700    0.2800    0.2900    0.3000    0.3100
    0.3200    0.3300    0.3400    0.3500    0.3600    0.3700    0.3800    0.3900
    0.4000    0.4100    0.4200    0.4300    0.4400    0.4500    0.4600    0.4700
    0.4800    0.4900    0.5000    0.5100    0.5200    0.5300    0.5400    0.5500
    0.5600    0.5700    0.5800    0.5900    0.6000    0.6100    0.6200    0.6300
    0.6400    0.6500    0.6600    0.6700    0.6800    0.6900    0.7000    0.7100
    0.7200    0.7300    0.7400    0.7500    0.7600    0.7700    0.7800    0.7900
    0.8000    0.8100    0.8200    0.8300    0.8400    0.8500    0.8600    0.8700
    0.8800    0.8900    0.9000    0.9100    0.9200    0.9300    0.9400    0.9500
    0.9600    0.9700    0.9800    0.9900    1.0000    1.0100    1.0200    1.0300
    1.0400    1.0500    1.0600    1.0700    1.0800    1.0900    1.1000    1.1100
    1.1200    1.1300    1.1400    1.1500    1.1600    1.1700    1.1800    1.1900
    1.2000    1.2100    1.2200    1.2300    1.2400    1.2500    1.2600    1.2700
    1.2800    1.2900    1.3000    1.3100    1.3200    1.3300    1.3400    1.3500
    1.3600    1.3700    1.3800    1.3900    1.4000    1.4100    1.4200    1.4300
    1.4400    1.4500    1.4600    1.4700    1.4800    1.4900    1.5000    1.5100
    1.5200    1.5300    1.5400    1.5500    1.5600    1.5700    1.5800    1.5900
    1.6000    1.6100    1.6200    1.6300    1.6400    1.6500    1.6600    1.6700
    1.6800    1.6900    1.7000    1.7100    1.7200    1.7300    1.7400    1.7500
    1.7600    1.7700    1.7800    1.7900    1.8000    1.8100    1.8200    1.8300
    1.8400    1.8500    1.8600    1.8700    1.8800    1.8900    1.9000    1.9100
    1.9200    1.9300    1.9400    1.9500    1.9600    1.9700    1.9800    1.9900
    2.0000    2.0100    2.0200    2.0300    2.0400    2.0500    2.0600    2.0700
    2.0800    2.0900    2.1000    2.1100    2.1200    2.1300    2.1400    2.1500
    2.1600    2.1700    2.1800    2.1900    2.2000    2.2100    2.2200    2.2300
    2.2400    2.2500    2.2600    2.2700    2.2800    2.2900    2.3000    2.3100
    2.3200    2.3300    2.3400    2.3500    2.3600    2.3700    2.3800    2.3900
    2.4000    2.4100    2.4200    2.4300    2.4400    2.4500    2.4600    2.4700
    2.4800    2.4900    2.5000    2.5100    2.5200    2.5300    2.5400    2.5500
    2.5600    2.5700    2.5800    2.5900    2.6000    2.6100    2.6200    2.6300
    2.6400    2.6500    2.6600    2.6700    2.6800    2.6900    2.7000    2.7100
    2.7200    2.7300    2.7400    2.7500    2.7600    2.7700    2.7800    2.7900
    2.8000    2.8100    2.8200    2.8300    2.8400    2.8500    2.8600    2.8700
    2.8800    2.8900    2.9000    2.9100    2.9200    2.9300    2.9400    2.9500
    2.9600    2.9700    2.9800    2.9900    3.0000    3.0100    3.0200    3.0300
    3.0400    3.0500    3.0600    3.0700    3.0800    3.0900    3.1000    3.1100
    3.1200    3.1300    3.1400    3.1500    3.1600    3.1700    3.1800    3.1900
    3.2000    3.2100    3.2200    3.2300    3.2400    3.2500    3.2600    3.2700
    3.2800    3.2900    3.3000    3.3100    3.3200    3.3300    3.3400    3.3500
    3.3600    3.3700    3.3800    3.3900    3.4000    3.4100    3.4200    3.4300
    3.4400    3.4500    3.4600    3.4700    3.4800    3.4900    3.5000    3.5100
    3.5200    3.5300    3.5400    3.5500    3.5600    3.5700    3.5800    3.5900
    3.6000    3.6100    3.6200    3.6300    3.6400    3.6500    3.6600    3.6700
    3.6800    3.6900    3.7000    3.7100    3.7200    3.7300    3.7400    3.7500
    3.7600    3.7700    3.7800    3.7900    3.8000    3.8100    3.8200    3.8300
    3.8400    3.8500    3.8600    3.8700    3.8800    3.8900    3.9000    3.9100
    3.9200    3.9300    3.9400    3.9500    3.9600    3.9700    3.9800    3.9900
    4.0000    4.0100    4.0200    4.0300    4.0400    4.0500    4.0600    4.0700
    4.0800    4.0900    4.1000    4.1100    4.1200    4.1300    4.1400    4.1500
    4.1600    4.1700    4.1800    4.1900    4.2000    4.2100    4.2200    4.2300
    4.2400    4.2500    4.2600    4.2700    4.2800    4.2900    4.3000    4.3100
    4.3200    4.3300    4.3400    4.3500    4.3600    4.3700    4.3800    4.3900
    4.4000    4.4100    4.4200    4.4300    4.4400    4.4500    4.4600    4.4700
    4.4800    4.4900    4.5000    4.5100    4.5200    4.5300    4.5400    4.5500
    4.5600    4.5700    4.5800    4.5900    4.6000    4.6100    4.6200    4.6300
    4.6400    4.6500    4.6600    4.6700    4.6800    4.6900    4.7000    4.7100
    4.7200    4.7300    4.7400    4.7500    4.7600    4.7700    4.7800    4.7900
    4.8000    4.8100    4.8200    4.8300    4.8400    4.8500    4.8600    4.8700
    4.8800    4.8900    4.9000    4.9100    4.9200    4.9300    4.9400    4.9500
    4.9600    4.9700    4.9800    4.9900    5.0000    5.0100    5.0200    5.0300
    5.0400    5.0500    5.0600    5.0700    5.0800    5.0900    5.1000    5.1100
    5.1200    5.1300    5.1400    5.1500    5.1600    5.1700    5.1800    5.1900
    5.2000    5.2100    5.2200    5.2300    5.2400    5.2500    5.2600    5.2700
    5.2800    5.2900    5.3000    5.3100    5.3200    5.3300    5.3400    5.3500
    5.3600    5.3700    5.3800    5.3900    5.4000    5.4100    5.4200    5.4300
    5.4400    5.4500    5.4600    5.4700    5.4800    5.4900    5.5000    5.5100
    5.5200    5.5300    5.5400    5.5500    5.5600    5.5700    5.5800    5.5900
    5.6000    5.6100    5.6200    5.6300    5.6400    5.6500    5.6600    5.6700
    5.6800    5.6900    5.7000    5.7100    5.7200    5.7300    5.7400    5.7500
    5.7600    5.7700    5.7800    5.7900    5.8000    5.8100    5.8200    5.8300
    5.8400    5.8500    5.8600    5.8700    5.8800    5.8900    5.9000    5.9100
    5.9200    5.9300    5.9400    5.9500    5.9600    5.9700    5.9800    5.9900
    6.0000    6.0100    6.0200    6.0300    6.0400    6.0500    6.0600    6.0700
    6.0800    6.0900    6.1000    6.1100    6.1200    6.1300    6.1400    6.1500
    6.1600    6.1700    6.1800    6.1900    6.2000    6.2100    6.2200    6.2300
    6.2400    6.2500    6.2600    6.2700    6.2800    6.2900    6.3000    6.3100
    6.3200    6.3300    6.3400    6.3500    6.3600    6.3700    6.3800    6.3900
    6.4000    6.4100    6.4200    6.4300    6.4400    6.4500    6.4600    6.4700
    6.4800    6.4900    6.5000    6.5100    6.5200    6.5300    6.5400    6.5500
    6.5600    6.5700    6.5800    6.5900    6.6000    6.6100    6.6200    6.6300
    6.6400    6.6500    6.6600    6.6700    6.6800    6.6900    6.7000    6.7100
    6.7200    6.7300    6.7400    6.7500    6.7600    6.7700    6.7800    6.7900
    6.8000    6.8100    6.8200    6.8300    6.8400    6.8500    6.8600    6.8700
    6.8800    6.8900    6.9000    6.9100    6.9200    6.9300    6.9400    6.9500
    6.9600    6.9700    6.9800    6.9900    7.0000    7.0100    7.0200    7.0300
    7.0400    7.0500    7.0600    7.0700    7.0800    7.0900    7.1000    7.1100
    7.1200    7.1300    7.1400    7.1500    7.1600    7.1700    7.1800    7.1900
    7.2000    7.2100    7.2200    7.2300    7.2400    7.2500    7.2600    7.2700
    7.2800    7.2900    7.3000    7.3100    7.3200    7.3300    7.3400    7.3500
    7.3600    7.3700    7.3800    7.3900    7.4000    7.4100    7.4200    7.4300
    7.4400    7.4500    7.4600    7.4700    7.4800    7.4900    7.5000    7.5100
    7.5200    7.5300    7.5400    7.5500    7.5600    7.5700    7.5800    7.5900
    7.6000    7.6100    7.6200    7.6300    7.6400    7.6500    7.6600    7.6700
    7.6800    7.6900    7.7000    7.7100    7.7200    7.7300    7.7400    7.7500
    7.7600    7.7700    7.7800    7.7900    7.8000    7.8100    7.8200    7.8300
    7.8400    7.8500    7.8600    7.8700    7.8800    7.8900    7.9000    7.9100
    7.9200    7.9300    7.9400    7.9500    7.9600    7.9700    7.9800    7.9900
    8.0000    8.0100    8.0200    8.0300    8.0400    8.0500    8.0600    8.0700
    8.0800    8.0900    8.1000    8.1100    8.1200    8.1300    8.1400    8.1500
    8.1600    8.1700    8.1800    8.1900    8.2000    8.2100    8.2200    8.2300
   </PP_R>
   <PP_RAB type="real"  size=" 824" columns="8">
    0.0100    0.0100    0.0100    0.0100    0.0100    0.0100    0.0100    0.0100
    0.0100    0.0100    0.0100    0.0100    0.0100    0.0100    0.0100    0.0100
    0.0100    0.0100    0.0100    0.0100    0.0100    0.0100    0.0100    0.0100
    0.0100    0.0100    0.0100    0.0100    0.0100    0.0100    0.0100    0.0100
    0.0100    0.0100    0.0100    0.0100    0.0100    0.0100    0.0100    0.0100
    0.0100    0.0100    0.0100    0.0100    0.0100    0.0100    0.0100    0.0100
    0.0100    0.0100    0.0100    0.0100    0.0100    0.0100    0.0100    0.0100
    0.0100    0.0100    0.0100    0.0100    0.0100    0.0100    0.0100    0.0100
    0.0100    0.0100    0.0100    0.0100    0.0100    0.0100    0.0100    0.0100
    0.0100    0.0100    0.0100    0.0100    0.0100    0.0100    0.0100    0.0100
    0.0100    0.0100    0.0100    0.0100    0.0100    0.0100    0.0100    0.0100
    0.0100    0.0100    0.0100    0.0100    0.0100    0.0100    0.0100    0.0100
    0.0100    0.0100    0.0100    0.0100    0.0100    0.0100    0.0100    0.0100
    0.0100    0.0100    0.0100    0.0100    0.0100    0.0100    0.0100    0.0100
    0.0100    0.0100    0.0100    0.0100    0.0100    0.0100    0.0100    0.0100
    0.0100    0.0100    0.0100    0.0100    0.0100    0.0100    0.0100    0.0100
    0.0100    0.0100    0.0100    0.0100    0.0100    0.0100    0.0100    0.0100
    0.0100    0.0100    0.0100    0.0100    0.0100    0.0100    0.0100    0.0100
    0.0100    0.0100    0.0100    0.0100    0.0100    0.0100    0.0100    0.0100
    0.0100    0.0100    0.0100    0.0100    0.0100    0.0100    0.0100    0.0100
    0.0100    0.0100    0.0100    0.0100    0.0100    0.0100    0.0100    0.0100
    0.0100    0.0100    0.0100    0.0100    0.0100    0.0100    0.0100    0.0100
    0.0100    0.0100    0.0100    0.0100    0.0100    0.0100    0.0100    0.0100
    0.0100    0.0100    0.0100    0.0100    0.0100    0.0100    0.0100    0.0100
    0.0100    0.0100    0.0100    0.0100    0.0100    0.0100    0.0100    0.0100
    0.0100    0.0100    0.0100    0.0100    0.0100    0.0100    0.0100    0.0100
    0.0100    0.0100    0.0100    0.0100    0.0100    0.0100    0.0100    0.0100
    0.0100    0.0100    0.0100    0.0100    0.0100    0.0100    0.0100    0.0100
    0.0100    0.0100    0.0100    0.0100    0.0100    0.0100    0.0100    0.0100
    0.0100    0.0100    0.0100    0.0100    0.0100    0.0100    0.0100    0.0100
    0.0100    0.0100    0.0100    0.0100    0.0100    0.0100    0.0100    0.0100
    0.0100    0.0100    0.0100    0.0100    0.0100    0.0100    0.0100    0.0100
    0.0100    0.0100    0.0100    0.0100    0.0100    0.0100    0.0100    0.0100
    0.0100    0.0100    0.0100    0.0100    0.0100    0.0100    0.0100    0.0100
    0.0100    0.0100    0.0100    0.0100    0.0100    0.0100    0.0100    0.0100
    0.0100    0.0100    0.0100    0.0100    0.0100    0.0100    0.0100    0.0100
    0.0100    0.0100    0.0100    0.0100    0.0100    0.0100    0.0100    0.0100
    0.0100    0.0100    0.0100    0.0100    0.0100    0.0100    0.0100    0.0100
    0.0100    0.0100    0.0100    0.0100    0.0100    0.0100    0.0100    0.0100
    0.0100    0.0100    0.0100    0.0100    0.0100    0.0100    0.0100    0.0100
    0.0100    0.0100    0.0100    0.0100    0.0100    0.0100    0.0100    0.0100
    0.0100    0.0100    0.0100    0.0100    0.0100    0.0100    0.0100    0.0100
    0.0100    0.0100    0.0100    0.0100    0.0100    0.0100    0.0100    0.0100
    0.0100    0.0100    0.0100    0.0100    0.0100    0.0100    0.0100    0.0100
    0.0100    0.0100    0.0100    0.0100    0.0100    0.0100    0.0100    0.0100
    0.0100    0.0100    0.0100    0.0100    0.0100    0.0100    0.0100    0.0100
    0.0100    0.0100    0.0100    0.0100    0.0100    0.0100    0.0100    0.0100
    0.0100    0.0100    0.0100    0.0100    0.0100    0.0100    0.0100    0.0100
    0.0100    0.0100    0.0100    0.0100    0.0100    0.0100    0.0100    0.0100
    0.0100    0.0100    0.0100    0.0100    0.0100    0.0100    0.0100    0.0100
    0.0100    0.0100    0.0100    0.0100    0.0100    0.0100    0.0100    0.0100
    0.0100    0.0100    0.0100    0.0100    0.0100    0.0100    0.0100    0.0100
    0.0100    0.0100    0.0100    0.0100    0.0100    0.0100    0.0100    0.0100
    0.0100    0.0100    0.0100    0.0100    0.0100    0.0100    0.0100    0.0100
    0.0100    0.0100    0.0100    0.0100    0.0100    0.0100    0.0100    0.0100
    0.0100    0.0100    0.0100    0.0100    0.0100    0.0100    0.0100    0.0100
    0.0100    0.0100    0.0100    0.0100    0.0100    0.0100    0.0100    0.0100
    0.0100    0.0100    0.0100    0.0100    0.0100    0.0100    0.0100    0.0100
    0.0100    0.0100    0.0100    0.0100    0.0100    0.0100    0.0100    0.0100
    0.0100    0.0100    0.0100    0.0100    0.0100    0.0100    0.0100    0.0100
    0.0100    0.0100    0.0100    0.0100    0.0100    0.0100    0.0100    0.0100
    0.0100    0.0100    0.0100    0.0100    0.0100    0.0100    0.0100    0.0100
    0.0100    0.0100    0.0100    0.0100    0.0100    0.0100    0.0100    0.0100
    0.0100    0.0100    0.0100    0.0100    0.0100    0.0100    0.0100    0.0100
    0.0100    0.0100    0.0100    0.0100    0.0100    0.0100    0.0100    0.0100
    0.0100    0.0100    0.0100    0.0100    0.0100    0.0100    0.0100    0.0100
    0.0100    0.0100    0.0100    0.0100    0.0100    0.0100    0.0100    0.0100
    0.0100    0.0100    0.0100    0.0100    0.0100    0.0100    0.0100    0.0100
    0.0100    0.0100    0.0100    0.0100    0.0100    0.0100    0.0100    0.0100
    0.0100    0.0100    0.0100    0.0100    0.0100    0.0100    0.0100    0.0100
    0.0100    0.0100    0.0100    0.0100    0.0100    0.0100    0.0100    0.0100
    0.0100    0.0100    0.0100    0.0100    0.0100    0.0100    0.0100    0.0100
    0.0100    0.0100    0.0100    0.0100    0.0100    0.0100    0.0100    0.0100
    0.0100    0.0100    0.0100    0.0100    0.0100    0.0100    0.0100    0.0100
    0.0100    0.0100    0.0100    0.0100    0.0100    0.0100    0.0100    0.0100
    0.0100    0.0100    0.0100    0.0100    0.0100    0.0100    0.0100    0.0100
    0.0100    0.0100    0.0100    0.0100    0.0100    0.0100    0.0100    0.0100
    0.0100    0.0100    0.0100    0.0100    0.0100    0.0100    0.0100    0.0100
    0.0100    0.0100    0.0100    0.0100    0.0100    0.0100    0.0100    0.0100
    0.0100    0.0100    0.0100    0.0100    0.0100    0.0100    0.0100    0.0100
    0.0100    0.0100    0.0100    0.0100    0.0100    0.0100    0.0100    0.0100
    0.0100    0.0100    0.0100    0.0100    0.0100    0.0100    0.0100    0.0100
    0.0100    0.0100    0.0100    0.0100    0.0100    0.0100    0.0100    0.0100
    0.0100    0.0100    0.0100    0.0100    0.0100    0.0100    0.0100    0.0100
    0.0100    0.0100    0.0100    0.0100    0.0100    0.0100    0.0100    0.0100
    0.0100    0.0100    0.0100    0.0100    0.0100    0.0100    0.0100    0.0100
    0.0100    0.0100    0.0100    0.0100    0.0100    0.0100    0.0100    0.0100
    0.0100    0.0100    0.0100    0.0100    0.0100    0.0100    0.0100    0.0100
    0.0100    0.0100    0.0100    0.0100    0.0100    0.0100    0.0100    0.0100
    0.0100    0.0100    0.0100    0.0100    0.0100    0.0100    0.0100    0.0100
    0.0100    0.0100    0.0100    0.0100    0.0100    0.0100    0.0100    0.0100
    0.0100    0.0100    0.0100    0.0100    0.0100    0.0100    0.0100    0.0100
    0.0100    0.0100    0.0100    0.0100    0.0100    0.0100    0.0100    0.0100
    0.0100    0.0100    0.0100    0.0100    0.0100    0.0100    0.0100    0.0100
    0.0100    0.0100    0.0100    0.0100    0.0100    0.0100    0.0100    0.0100
    0.0100    0.0100    0.0100    0.0100    0.0100    0.0100    0.0100    0.0100
    0.0100    0.0100    0.0100    0.0100    0.0100    0.0100    0.0100    0.0100
    0.0100    0.0100    0.0100    0.0100    0.0100    0.0100    0.0100    0.0100
    0.0100    0.0100    0.0100    0.0100    0.0100    0.0100    0.0100    0.0100
    0.0100    0.0100    0.0100    0.0100    0.0100    0.0100    0.0100    0.0100
    0.0100    0.0100    0.0100    0.0100    0.0100    0.0100    0.0100    0.0100
    0.0100    0.0100    0.0100    0.0100    0.0100    0.0100    0.0100    0.0100
    0.0100    0.0100    0.0100    0.0100    0.0100    0.0100    0.0100    0.0100
   </PP_RAB>
 </PP_MESH>
  <PP_LOCAL type="real"  size=" 824" columns="4">
   -3.1381094506E+01   -3.1377193283E+01   -3.1365502777E+01   -3.1346062164E+01
   -3.1318935329E+01   -3.1284208895E+01   -3.1241989675E+01   -3.1192401719E+01
   -3.1135583158E+01   -3.1071683016E+01   -3.1000858162E+01   -3.0923270501E+01
   -3.0839084518E+01   -3.0748465196E+01   -3.0651576341E+01   -3.0548579300E+01
   -3.0439632034E+01   -3.0324888522E+01   -3.0204498441E+01   -3.0078607067E+01
   -2.9947355370E+01   -2.9810880241E+01   -2.9669314832E+01   -2.9522788966E+01
   -2.9371429590E+01   -2.9215361262E+01   -2.9054706638E+01   -2.8889586965E+01
   -2.8720122546E+01   -2.8546433200E+01   -2.8368638676E+01   -2.8186859055E+01
   -2.8001215105E+01   -2.7811828605E+01   -2.7618822640E+01   -2.7422321849E+01
   -2.7222452649E+01   -2.7019343417E+01   -2.6813124643E+01   -2.6603929046E+01
   -2.6391891663E+01   -2.6177149906E+01   -2.5959843587E+01   -2.5740114920E+01
   -2.5518108494E+01   -2.5293971219E+01   -2.5067852254E+01   -2.4839902905E+01
   -2.4610276505E+01   -2.4379128279E+01   -2.4146615179E+01   -2.3912895712E+01
   -2.3678129747E+01   -2.3442478305E+01   -2.3206103341E+01   -2.2969167509E+01
   -2.2731833914E+01   -2.2494265859E+01   -2.2256626578E+01   -2.2019078963E+01
   -2.1781785279E+01   -2.1544906884E+01   -2.1308603926E+01   -2.1073035053E+01
   -2.0838357107E+01   -2.0604724822E+01   -2.0372290512E+01   -2.0141203766E+01
   -1.9911611136E+01   -1.9683655825E+01   -1.9457477377E+01   -1.9233211365E+01
   -1.9010989078E+01   -1.8790937217E+01   -1.8573177579E+01   -1.8357826754E+01
   -1.8144995817E+01   -1.7934790022E+01   -1.7727308503E+01   -1.7522643967E+01
   -1.7320882394E+01   -1.7122102743E+01   -1.6926376649E+01   -1.6733768127E+01
   -1.6544333278E+01   -1.6358119992E+01   -1.6175167654E+01   -1.5995506850E+01
   -1.5819159071E+01   -1.5646136417E+01   -1.5476441306E+01   -1.5310066170E+01
   -1.5146993164E+01   -1.4987193861E+01   -1.4830628953E+01   -1.4677247948E+01
   -1.4526988873E+01   -1.4379777974E+01   -1.4235529490E+01   -1.4094152075E+01
   -1.3955556268E+01   -1.3819656662E+01   -1.3686371205E+01   -1.3555621178E+01
   -1.3427331044E+01   -1.3301428304E+01   -1.3177843368E+01   -1.3056509425E+01
   -1.2937362329E+01   -1.2820340483E+01   -1.2705384730E+01   -1.2592438250E+01
   -1.2481446464E+01   -1.2372356820E+01   -1.2265120299E+01   -1.2159683400E+01
   -1.2056004000E+01   -1.1954076698E+01   -1.1853803018E+01   -1.1755111711E+01
   -1.1658024369E+01   -1.1562493118E+01   -1.1468471024E+01   -1.1375926846E+01
   -1.1284825770E+01   -1.1195134645E+01   -1.1106821610E+01   -1.1019855875E+01
   -1.0934207702E+01   -1.0849848351E+01   -1.0766750024E+01   -1.0684885819E+01
   -1.0604229678E+01   -1.0524756348E+01   -1.0446441331E+01   -1.0369260845E+01
   -1.0293191789E+01   -1.0218211700E+01   -1.0144298727E+01   -1.0071431588E+01
   -9.9995895533E+00   -9.9287524068E+00   -9.8589004271E+00   -9.7900143624E+00
   -9.7220754091E+00   -9.6550651930E+00   -9.5889657520E+00   -9.5237595203E+00
   -9.4594293151E+00   -9.3959583238E+00   -9.3333300936E+00   -9.2715285221E+00
   -9.2105378490E+00   -9.1503426491E+00   -9.0909278261E+00   -9.0322786074E+00
   -8.9743805393E+00   -8.9172194832E+00   -8.8607816116E+00   -8.8050534051E+00
   -8.7500216490E+00   -8.6956734301E+00   -8.6419961326E+00   -8.5889774344E+00
   -8.5366053022E+00   -8.4848679868E+00   -8.4337540180E+00   -8.3832521981E+00
   -8.3333515958E+00   -8.2840415390E+00   -8.2353116066E+00   -8.1871516212E+00
   -8.1395516417E+00   -8.0925019567E+00   -8.0459930783E+00   -8.0000157354E+00
   -7.9545608676E+00   -7.9096196191E+00   -7.8651833335E+00   -7.8212435474E+00
   -7.7777919858E+00   -7.7348205563E+00   -7.6923213448E+00   -7.6502866097E+00
   -7.6087087779E+00   -7.5675804402E+00   -7.5268943465E+00   -7.4866434018E+00
   -7.4468206623E+00   -7.4074193309E+00   -7.3684327538E+00   -7.3298544163E+00
   -7.2916779397E+00   -7.2538970774E+00   -7.2165057114E+00   -7.1794978496E+00
   -7.1428676218E+00   -7.1066092772E+00   -7.0707171812E+00   -7.0351858123E+00
   -7.0000097596E+00   -6.9651837199E+00   -6.9307024947E+00   -6.8965609884E+00
   -6.8627542049E+00   -6.8292772459E+00   -6.7961253080E+00   -6.7632936807E+00
   -6.7307777441E+00   -6.6985729667E+00   -6.6666749034E+00   -6.6350791932E+00
   -6.6037815575E+00   -6.5727777980E+00   -6.5420637950E+00   -6.5116355053E+00
   -6.4814889605E+00   -6.4516202657E+00   -6.4220255970E+00   -6.3927012008E+00
   -6.3636433914E+00   -6.3348485500E+00   -6.3063131230E+00   -6.2780336203E+00
   -6.2500066145E+00   -6.2222287388E+00   -6.1946966863E+00   -6.1674072081E+00
   -6.1403571124E+00   -6.1135432633E+00   -6.0869625791E+00   -6.0606120318E+00
   -6.0344886453E+00   -6.0085894950E+00   -5.9829117059E+00   -5.9574524521E+00
   -5.9322089557E+00   -5.9071784854E+00   -5.8823583562E+00   -5.8577459276E+00
   -5.8333386034E+00   -5.8091338304E+00   -5.7851290977E+00   -5.7613219356E+00
   -5.7377099149E+00   -5.7142906461E+00   -5.6910617786E+00   -5.6680209999E+00
   -5.6451660345E+00   -5.6224946438E+00   -5.6000046249E+00   -5.5776938100E+00
   -5.5555600657E+00   -5.5336012923E+00   -5.5118154232E+00   -5.4902004243E+00
   -5.4687542931E+00   -5.4474750584E+00   -5.4263607796E+00   -5.4054095459E+00
   -5.3846194761E+00   -5.3639887176E+00   -5.3435154464E+00   -5.3231978659E+00
   -5.3030342069E+00   -5.2830227270E+00   -5.2631617098E+00   -5.2434494646E+00
   -5.2238843262E+00   -5.2044646540E+00   -5.1851888315E+00   -5.1660552665E+00
   -5.1470623898E+00   -5.1282086555E+00   -5.1094925401E+00   -5.0909125422E+00
   -5.0724671823E+00   -5.0541550023E+00   -5.0359745649E+00   -5.0179244536E+00
   -5.0000032720E+00   -4.9822096436E+00   -4.9645422114E+00   -4.9469996377E+00
   -4.9295806036E+00   -4.9122838086E+00   -4.8951079706E+00   -4.8780518250E+00
   -4.8611141252E+00   -4.8442936415E+00   -4.8275891615E+00   -4.8109994891E+00
   -4.7945234449E+00   -4.7781598654E+00   -4.7619076031E+00   -4.7457655257E+00
   -4.7297325168E+00   -4.7138074744E+00   -4.6979893117E+00   -4.6822769564E+00
   -4.6666693503E+00   -4.6511654494E+00   -4.6357642236E+00   -4.6204646563E+00
   -4.6052657442E+00   -4.5901664972E+00   -4.5751659384E+00   -4.5602631033E+00
   -4.5454570400E+00   -4.5307468090E+00   -4.5161314829E+00   -4.5016101462E+00
   -4.4871818951E+00   -4.4728458376E+00   -4.4586010926E+00   -4.4444467907E+00
   -4.4303820730E+00   -4.4164060920E+00   -4.4025180103E+00   -4.3887170014E+00
   -4.3750022489E+00   -4.3613729468E+00   -4.3478282988E+00   -4.3343675188E+00
   -4.3209898301E+00   -4.3076944658E+00   -4.2944806683E+00   -4.2813476893E+00
   -4.2682947895E+00   -4.2553212387E+00   -4.2424263157E+00   -4.2296093077E+00
   -4.2168695107E+00   -4.2042062292E+00   -4.1916187758E+00   -4.1791064714E+00
   -4.1666686452E+00   -4.1543046341E+00   -4.1420137829E+00   -4.1297954442E+00
   -4.1176489782E+00   -4.1055737525E+00   -4.0935691423E+00   -4.0816345299E+00
   -4.0697693049E+00   -4.0579728639E+00   -4.0462446105E+00   -4.0345839552E+00
   -4.0229903152E+00   -4.0114631145E+00   -4.0000017836E+00   -3.9886057595E+00
   -3.9772744857E+00   -3.9660074117E+00   -3.9548039937E+00   -3.9436636935E+00
   -3.9325859794E+00   -3.9215703254E+00   -3.9106162114E+00   -3.8997231232E+00
   -3.8888905522E+00   -3.8781179955E+00   -3.8674049558E+00   -3.8567509411E+00
   -3.8461554651E+00   -3.8356180465E+00   -3.8251382095E+00   -3.8147154834E+00
   -3.8043494026E+00   -3.7940395066E+00   -3.7837853398E+00   -3.7735864516E+00
   -3.7634423962E+00   -3.7533527325E+00   -3.7433170244E+00   -3.7333348400E+00
   -3.7234057524E+00   -3.7135293391E+00   -3.7037051820E+00   -3.6939328675E+00
   -3.6842119862E+00   -3.6745421332E+00   -3.6649229078E+00   -3.6553539134E+00
   -3.6458347575E+00   -3.6363650518E+00   -3.6269444120E+00   -3.6175724578E+00
   -3.6082488126E+00   -3.5989731039E+00   -3.5897449630E+00   -3.5805640249E+00
   -3.5714299284E+00   -3.5623423158E+00   -3.5533008333E+00   -3.5443051306E+00
   -3.5353548606E+00   -3.5264496803E+00   -3.5175892496E+00   -3.5087732321E+00
   -3.5000012948E+00   -3.4912731078E+00   -3.4825883447E+00   -3.4739466821E+00
   -3.4653478001E+00   -3.4567913817E+00   -3.4482771132E+00   -3.4398046839E+00
   -3.4313737862E+00   -3.4229841153E+00   -3.4146353697E+00   -3.4063272507E+00
   -3.3980594623E+00   -3.3898317117E+00   -3.3816437087E+00   -3.3734951660E+00
   -3.3653857989E+00   -3.3573153258E+00   -3.3492834674E+00   -3.3412899472E+00
   -3.3333344914E+00   -3.3254168289E+00   -3.3175366907E+00   -3.3096938110E+00
   -3.3018879260E+00   -3.2941187746E+00   -3.2863860981E+00   -3.2786896402E+00
   -3.2710291471E+00   -3.2634043673E+00   -3.2558150516E+00   -3.2482609532E+00
   -3.2407418275E+00   -3.2332574321E+00   -3.2258075271E+00   -3.2183918746E+00
   -3.2110102388E+00   -3.2036623862E+00   -3.1963480855E+00   -3.1890671074E+00
   -3.1818192247E+00   -3.1746042121E+00   -3.1674218468E+00   -3.1602719074E+00
   -3.1531541750E+00   -3.1460684325E+00   -3.1390144646E+00   -3.1319920580E+00
   -3.1250010016E+00   -3.1180410857E+00   -3.1111121027E+00   -3.1042138470E+00
   -3.0973461146E+00   -3.0905087032E+00   -3.0837014127E+00   -3.0769240443E+00
   -3.0701764012E+00   -3.0634582883E+00   -3.0567695122E+00   -3.0501098811E+00
   -3.0434792049E+00   -3.0368772952E+00   -3.0303039652E+00   -3.0237590297E+00
   -3.0172423052E+00   -3.0107536096E+00   -3.0042927625E+00   -2.9978595850E+00
   -2.9914538997E+00   -2.9850755308E+00   -2.9787243038E+00   -2.9724000460E+00
   -2.9661025860E+00   -2.9598317536E+00   -2.9535873805E+00   -2.9473692995E+00
   -2.9411773449E+00   -2.9350113524E+00   -2.9288711590E+00   -2.9227566032E+00
   -2.9166675247E+00   -2.9106037646E+00   -2.9045651654E+00   -2.8985515707E+00
   -2.8925628256E+00   -2.8865987763E+00   -2.8806592705E+00   -2.8747441569E+00
   -2.8688532856E+00   -2.8629865079E+00   -2.8571436761E+00   -2.8513246441E+00
   -2.8455292668E+00   -2.8397574000E+00   -2.8340089012E+00   -2.8282836287E+00
   -2.8225814419E+00   -2.8169022015E+00   -2.8112457694E+00   -2.8056120083E+00
   -2.8000007823E+00   -2.7944119564E+00   -2.7888453967E+00   -2.7833009705E+00
   -2.7777785460E+00   -2.7722779924E+00   -2.7667991802E+00   -2.7613419807E+00
   -2.7559062662E+00   -2.7504919102E+00   -2.7450987869E+00   -2.7397267717E+00
   -2.7343757410E+00   -2.7290455720E+00   -2.7237361429E+00   -2.7184473330E+00
   -2.7131790224E+00   -2.7079310921E+00   -2.7027034240E+00   -2.6974959012E+00
   -2.6923084072E+00   -2.6871408269E+00   -2.6819930458E+00   -2.6768649502E+00
   -2.6717564275E+00   -2.6666673659E+00   -2.6615976543E+00   -2.6565471826E+00
   -2.6515158415E+00   -2.6465035225E+00   -2.6415101179E+00   -2.6365355209E+00
   -2.6315796253E+00   -2.6266423260E+00   -2.6217235185E+00   -2.6168230990E+00