<UPF version="2.0.1">
  <PP_INFO>

 This pseudopotential file has been produced using the code
 ONCVPSP  (Optimized Norm-Conservinng Vanderbilt PSeudopotential)
 scalar-relativistic version 3.3.1 12/12/2017 by D. R. Hamann
 The code is available through a link at URL www.mat-simresearch.com.
 Documentation with the package provides a full discription of the
 input data below.


 While it is not required under the terms of the GNU GPL, it is
 suggested that you cite D. R. Hamann, Phys. Rev. B 88, 085117 (2013)
 in any publication using these pseudopotentials.

    <PP_INPUTFILE>
# ATOM AND REFERENCE CONFIGURATION
# atsym  z   nc   nv     iexc    psfile
  He  2.00    0    1       3      upf
#
#   n    l    f        energy (Ha)
    1    0    2.00
#
# PSEUDOPOTENTIAL AND OPTIMIZATION
# lmax
    0
#
#   l,   rc,      ep,       ncon, nbas, qcut
    0   1.98530  -0.57023    5    8   7.17231
#
# LOCAL POTENTIAL
# lloc, lpopt,  rc(5),   dvloc0
    4    5   0.89431      0.00000
#
# VANDERBILT-KLEINMAN-BYLANDER PROJECTORs
# l, nproj, debl
    0    2   1.34022
#
# MODEL CORE CHARGE
# icmod, fcfact, rcfact
    0   0.00000   0.00000
#
# LOG DERIVATIVE ANALYSIS
# epsh1, epsh2, depsh
   -5.00    3.00    0.02
#
# OUTPUT GRID
# rlmax, drl
    6.00    0.01
#
# TEST CONFIGURATIONS
# ncnf
    0
# nvcnf
#   n    l    f
    </PP_INPUTFILE>
  </PP_INFO>
  <!--                               -->
  <!-- END OF HUMAN READABLE SECTION -->
  <!--                               -->
    <PP_HEADER
       generated="Generated using ONCVPSP code by D. R. Hamann"
       author="anonymous"
       date="220414"
       comment=""
       element="He"
       pseudo_type="NC"
       relativistic="scalar"
       is_ultrasoft="F"
       is_paw="F"
       is_coulomb="F"
       has_so="F"
       has_wfc="F"
       has_gipaw="F"
       core_correction="F"
       functional="PZ"
       z_valence="    2.00"
       total_psenergy="  -5.48434695427E+00"
       rho_cutoff="   7.31000000000E+00"
       l_max="0"
       l_local="-1"
       mesh_size="   732"
       number_of_wfc="1"
       number_of_proj="2"/>
 <PP_MESH>
   <PP_R type="real"  size=" 732" columns="8">
    0.0000    0.0100    0.0200    0.0300    0.0400    0.0500    0.0600    0.0700
    0.0800    0.0900    0.1000    0.1100    0.1200    0.1300    0.1400    0.1500
    0.1600    0.1700    0.1800    0.1900    0.2000    0.2100    0.2200    0.2300
    0.2400    0.2500    0.2600    0.2700    0.2800    0.2900    0.3000    0.3100
    0.3200    0.3300    0.3400    0.3500    0.3600    0.3700    0.3800    0.3900
    0.4000    0.4100    0.4200    0.4300    0.4400    0.4500    0.4600    0.4700
    0.4800    0.4900    0.5000    0.5100    0.5200    0.5300    0.5400    0.5500
    0.5600    0.5700    0.5800    0.5900    0.6000    0.6100    0.6200    0.6300
    0.6400    0.6500    0.6600    0.6700    0.6800    0.6900    0.7000    0.7100
    0.7200    0.7300    0.7400    0.7500    0.7600    0.7700    0.7800    0.7900
    0.8000    0.8100    0.8200    0.8300    0.8400    0.8500    0.8600    0.8700
    0.8800    0.8900    0.9000    0.9100    0.9200    0.9300    0.9400    0.9500
    0.9600    0.9700    0.9800    0.9900    1.0000    1.0100    1.0200    1.0300
    1.0400    1.0500    1.0600    1.0700    1.0800    1.0900    1.1000    1.1100
    1.1200    1.1300    1.1400    1.1500    1.1600    1.1700    1.1800    1.1900
    1.2000    1.2100    1.2200    1.2300    1.2400    1.2500    1.2600    1.2700
    1.2800    1.2900    1.3000    1.3100    1.3200    1.3300    1.3400    1.3500
    1.3600    1.3700    1.3800    1.3900    1.4000    1.4100    1.4200    1.4300
    1.4400    1.4500    1.4600    1.4700    1.4800    1.4900    1.5000    1.5100
    1.5200    1.5300    1.5400    1.5500    1.5600    1.5700    1.5800    1.5900
    1.6000    1.6100    1.6200    1.6300    1.6400    1.6500    1.6600    1.6700
    1.6800    1.6900    1.7000    1.7100    1.7200    1.7300    1.7400    1.7500
    1.7600    1.7700    1.7800    1.7900    1.8000    1.8100    1.8200    1.8300
    1.8400    1.8500    1.8600    1.8700    1.8800    1.8900    1.9000    1.9100
    1.9200    1.9300    1.9400    1.9500    1.9600    1.9700    1.9800    1.9900
    2.0000    2.0100    2.0200    2.0300    2.0400    2.0500    2.0600    2.0700
    2.0800    2.0900    2.1000    2.1100    2.1200    2.1300    2.1400    2.1500
    2.1600    2.1700    2.1800    2.1900    2.2000    2.2100    2.2200    2.2300
    2.2400    2.2500    2.2600    2.2700    2.2800    2.2900    2.3000    2.3100
    2.3200    2.3300    2.3400    2.3500    2.3600    2.3700    2.3800    2.3900
    2.4000    2.4100    2.4200    2.4300    2.4400    2.4500    2.4600    2.4700
    2.4800    2.4900    2.5000    2.5100    2.5200    2.5300    2.5400    2.5500
    2.5600    2.5700    2.5800    2.5900    2.6000    2.6100    2.6200    2.6300
    2.6400    2.6500    2.6600    2.6700    2.6800    2.6900    2.7000    2.7100
    2.7200    2.7300    2.7400    2.7500    2.7600    2.7700    2.7800    2.7900
    2.8000    2.8100    2.8200    2.8300    2.8400    2.8500    2.8600    2.8700
    2.8800    2.8900    2.9000    2.9100    2.9200    2.9300    2.9400    2.9500
    2.9600    2.9700    2.9800    2.9900    3.0000    3.0100    3.0200    3.0300
    3.0400    3.0500    3.0600    3.0700    3.0800    3.0900    3.1000    3.1100
    3.1200    3.1300    3.1400    3.1500    3.1600    3.1700    3.1800    3.1900
    3.2000    3.2100    3.2200    3.2300    3.2400    3.2500    3.2600    3.2700
    3.2800    3.2900    3.3000    3.3100    3.3200    3.3300    3.3400    3.3500
    3.3600    3.3700    3.3800    3.3900    3.4000    3.4100    3.4200    3.4300
    3.4400    3.4500    3.4600    3.4700    3.4800    3.4900    3.5000    3.5100
    3.5200    3.5300    3.5400    3.5500    3.5600    3.5700    3.5800    3.5900
    3.6000    3.6100    3.6200    3.6300    3.6400    3.6500    3.6600    3.6700
    3.6800    3.6900    3.7000    3.7100    3.7200    3.7300    3.7400    3.7500
    3.7600    3.7700    3.7800    3.7900    3.8000    3.8100    3.8200    3.8300
    3.8400    3.8500    3.8600    3.8700    3.8800    3.8900    3.9000    3.9100
    3.9200    3.9300    3.9400    3.9500    3.9600    3.9700    3.9800    3.9900
    4.0000    4.0100    4.0200    4.0300    4.0400    4.0500    4.0600    4.0700
    4.0800    4.0900    4.1000    4.1100    4.1200    4.1300    4.1400    4.1500
    4.1600    4.1700    4.1800    4.1900    4.2000    4.2100    4.2200    4.2300
    4.2400    4.2500    4.2600    4.2700    4.2800    4.2900    4.3000    4.3100
    4.3200    4.3300    4.3400    4.3500    4.3600    4.3700    4.3800    4.3900
    4.4000    4.4100    4.4200    4.4300    4.4400    4.4500    4.4600    4.4700
    4.4800    4.4900    4.5000    4.5100    4.5200    4.5300    4.5400    4.5500
    4.5600    4.5700    4.5800    4.5900    4.6000    4.6100    4.6200    4.6300
    4.6400    4.6500    4.6600    4.6700    4.6800    4.6900    4.7000    4.7100
    4.7200    4.7300    4.7400    4.7500    4.7600    4.7700    4.7800    4.7900
    4.8000    4.8100    4.8200    4.8300    4.8400    4.8500    4.8600    4.8700
    4.8800    4.8900    4.9000    4.9100    4.9200    4.9300    4.9400    4.9500
    4.9600    4.9700    4.9800    4.9900    5.0000    5.0100    5.0200    5.0300
    5.0400    5.0500    5.0600    5.0700    5.0800    5.0900    5.1000    5.1100
    5.1200    5.1300    5.1400    5.1500    5.1600    5.1700    5.1800    5.1900
    5.2000    5.2100    5.2200    5.2300    5.2400    5.2500    5.2600    5.2700
    5.2800    5.2900    5.3000    5.3100    5.3200    5.3300    5.3400    5.3500
    5.3600    5.3700    5.3800    5.3900    5.4000    5.4100    5.4200    5.4300
    5.4400    5.4500    5.4600    5.4700    5.4800    5.4900    5.5000    5.5100
    5.5200    5.5300    5.5400    5.5500    5.5600    5.5700    5.5800    5.5900
    5.6000    5.6100    5.6200    5.6300    5.6400    5.6500    5.6600    5.6700
    5.6800    5.6900    5.7000    5.7100    5.7200    5.7300    5.7400    5.7500
    5.7600    5.7700    5.7800    5.7900    5.8000    5.8100    5.8200    5.8300
    5.8400    5.8500    5.8600    5.8700    5.8800    5.8900    5.9000    5.9100
    5.9200    5.9300    5.9400    5.9500    5.9600    5.9700    5.9800    5.9900
    6.0000    6.0100    6.0200    6.0300    6.0400    6.0500    6.0600    6.0700
    6.0800    6.0900    6.1000    6.1100    6.1200    6.1300    6.1400    6.1500
    6.1600    6.1700    6.1800    6.1900    6.2000    6.2100    6.2200    6.2300
    6.2400    6.2500    6.2600    6.2700    6.2800    6.2900    6.3000    6.3100
    6.3200    6.3300    6.3400    6.3500    6.3600    6.3700    6.3800    6.3900
    6.4000    6.4100    6.4200    6.4300    6.4400    6.4500    6.4600    6.4700
    6.4800    6.4900    6.5000    6.5100    6.5200    6.5300    6.5400    6.5500
    6.5600    6.5700    6.5800    6.5900    6.6000    6.6100    6.6200    6.6300
    6.6400    6.6500    6.6600    6.6700    6.6800    6.6900    6.7000    6.7100
    6.7200    6.7300    6.7400    6.7500    6.7600    6.7700    6.7800    6.7900
    6.8000    6.8100    6.8200    6.8300    6.8400    6.8500    6.8600    6.8700
    6.8800    6.8900    6.9000    6.9100    6.9200    6.9300    6.9400    6.9500
    6.9600    6.9700    6.9800    6.9900    7.0000    7.0100    7.0200    7.0300
    7.0400    7.0500    7.0600    7.0700    7.0800    7.0900    7.1000    7.1100
    7.1200    7.1300    7.1400    7.1500    7.1600    7.1700    7.1800    7.1900
    7.2000    7.2100    7.2200    7.2300    7.2400    7.2500    7.2600    7.2700
    7.2800    7.2900    7.3000    7.3100
   </PP_R>
   <PP_RAB type="real"  size=" 732" columns="8">
    0.0100    0.0100    0.0100    0.0100    0.0100    0.0100    0.0100    0.0100
    0.0100    0.0100    0.0100    0.0100    0.0100    0.0100    0.0100    0.0100
    0.0100    0.0100    0.0100    0.0100    0.0100    0.0100    0.0100    0.0100
    0.0100    0.0100    0.0100    0.0100    0.0100    0.0100    0.0100    0.0100
    0.0100    0.0100    0.0100    0.0100    0.0100    0.0100    0.0100    0.0100
    0.0100    0.0100    0.0100    0.0100    0.0100    0.0100    0.0100    0.0100
    0.0100    0.0100    0.0100    0.0100    0.0100    0.0100    0.0100    0.0100
    0.0100    0.0100    0.0100    0.0100    0.0100    0.0100    0.0100    0.0100
    0.0100    0.0100    0.0100    0.0100    0.0100    0.0100    0.0100    0.0100
    0.0100    0.0100    0.0100    0.0100    0.0100    0.0100    0.0100    0.0100
    0.0100    0.0100    0.0100    0.0100    0.0100    0.0100    0.0100    0.0100
    0.0100    0.0100    0.0100    0.0100    0.0100    0.0100    0.0100    0.0100
    0.0100    0.0100    0.0100    0.0100    0.0100    0.0100    0.0100    0.0100
    0.0100    0.0100    0.0100    0.0100    0.0100    0.0100    0.0100    0.0100
    0.0100    0.0100    0.0100    0.0100    0.0100    0.0100    0.0100    0.0100
    0.0100    0.0100    0.0100    0.0100    0.0100    0.0100    0.0100    0.0100
    0.0100    0.0100    0.0100    0.0100    0.0100    0.0100    0.0100    0.0100
    0.0100    0.0100    0.0100    0.0100    0.0100    0.0100    0.0100    0.0100
    0.0100    0.0100    0.0100    0.0100    0.0100    0.0100    0.0100    0.0100
    0.0100    0.0100    0.0100    0.0100    0.0100    0.0100    0.0100    0.0100
    0.0100    0.0100    0.0100    0.0100    0.0100    0.0100    0.0100    0.0100
    0.0100    0.0100    0.0100    0.0100    0.0100    0.0100    0.0100    0.0100
    0.0100    0.0100    0.0100    0.0100    0.0100    0.0100    0.0100    0.0100
    0.0100    0.0100    0.0100    0.0100    0.0100    0.0100    0.0100    0.0100
    0.0100    0.0100    0.0100    0.0100    0.0100    0.0100    0.0100    0.0100
    0.0100    0.0100    0.0100    0.0100    0.0100    0.0100    0.0100    0.0100
    0.0100    0.0100    0.0100    0.0100    0.0100    0.0100    0.0100    0.0100
    0.0100    0.0100    0.0100    0.0100    0.0100    0.0100    0.0100    0.0100
    0.0100    0.0100    0.0100    0.0100    0.0100    0.0100    0.0100    0.0100
    0.0100    0.0100    0.0100    0.0100    0.0100    0.0100    0.0100    0.0100
    0.0100    0.0100    0.0100    0.0100    0.0100    0.0100    0.0100    0.0100
    0.0100    0.0100    0.0100    0.0100    0.0100    0.0100    0.0100    0.0100
    0.0100    0.0100    0.0100    0.0100    0.0100    0.0100    0.0100    0.0100
    0.0100    0.0100    0.0100    0.0100    0.0100    0.0100    0.0100    0.0100
    0.0100    0.0100    0.0100    0.0100    0.0100    0.0100    0.0100    0.0100
    0.0100    0.0100    0.0100    0.0100    0.0100    0.0100    0.0100    0.0100
    0.0100    0.0100    0.0100    0.0100    0.0100    0.0100    0.0100    0.0100
    0.0100    0.0100    0.0100    0.0100    0.0100    0.0100    0.0100    0.0100
    0.0100    0.0100    0.0100    0.0100    0.0100    0.0100    0.0100    0.0100
    0.0100    0.0100    0.0100    0.0100    0.0100    0.0100    0.0100    0.0100
    0.0100    0.0100    0.0100    0.0100    0.0100    0.0100    0.0100    0.0100
    0.0100    0.0100    0.0100    0.0100    0.0100    0.0100    0.0100    0.0100
    0.0100    0.0100    0.0100    0.0100    0.0100    0.0100    0.0100    0.0100
    0.0100    0.0100    0.0100    0.0100    0.0100    0.0100    0.0100    0.0100
    0.0100    0.0100    0.0100    0.0100    0.0100    0.0100    0.0100    0.0100
    0.0100    0.0100    0.0100    0.0100    0.0100    0.0100    0.0100    0.0100
    0.0100    0.0100    0.0100    0.0100    0.0100    0.0100    0.0100    0.0100
    0.0100    0.0100    0.0100    0.0100    0.0100    0.0100    0.0100    0.0100
    0.0100    0.0100    0.0100    0.0100    0.0100    0.0100    0.0100    0.0100
    0.0100    0.0100    0.0100    0.0100    0.0100    0.0100    0.0100    0.0100
    0.0100    0.0100    0.0100    0.0100    0.0100    0.0100    0.0100    0.0100
    0.0100    0.0100    0.0100    0.0100    0.0100    0.0100    0.0100    0.0100
    0.0100    0.0100    0.0100    0.0100    0.0100    0.0100    0.0100    0.0100
    0.0100    0.0100    0.0100    0.0100    0.0100    0.0100    0.0100    0.0100
    0.0100    0.0100    0.0100    0.0100    0.0100    0.0100    0.0100    0.0100
    0.0100    0.0100    0.0100    0.0100    0.0100    0.0100    0.0100    0.0100
    0.0100    0.0100    0.0100    0.0100    0.0100    0.0100    0.0100    0.0100
    0.0100    0.0100    0.0100    0.0100    0.0100    0.0100    0.0100    0.0100
    0.0100    0.0100    0.0100    0.0100    0.0100    0.0100    0.0100    0.0100
    0.0100    0.0100    0.0100    0.0100    0.0100    0.0100    0.0100    0.0100
    0.0100    0.0100    0.0100    0.0100    0.0100    0.0100    0.0100    0.0100
    0.0100    0.0100    0.0100    0.0100    0.0100    0.0100    0.0100    0.0100
    0.0100    0.0100    0.0100    0.0100    0.0100    0.0100    0.0100    0.0100
    0.0100    0.0100    0.0100    0.0100    0.0100    0.0100    0.0100    0.0100
    0.0100    0.0100    0.0100    0.0100    0.0100    0.0100    0.0100    0.0100
    0.0100    0.0100    0.0100    0.0100    0.0100    0.0100    0.0100    0.0100
    0.0100    0.0100    0.0100    0.0100    0.0100    0.0100    0.0100    0.0100
    0.0100    0.0100    0.0100    0.0100    0.0100    0.0100    0.0100    0.0100
    0.0100    0.0100    0.0100    0.0100    0.0100    0.0100    0.0100    0.0100
    0.0100    0.0100    0.0100    0.0100    0.0100    0.0100    0.0100    0.0100
    0.0100    0.0100    0.0100    0.0100    0.0100    0.0100    0.0100    0.0100
    0.0100    0.0100    0.0100    0.0100    0.0100    0.0100    0.0100    0.0100
    0.0100    0.0100    0.0100    0.0100    0.0100    0.0100    0.0100    0.0100
    0.0100    0.0100    0.0100    0.0100    0.0100    0.0100    0.0100    0.0100
    0.0100    0.0100    0.0100    0.0100    0.0100    0.0100    0.0100    0.0100
    0.0100    0.0100    0.0100    0.0100    0.0100    0.0100    0.0100    0.0100
    0.0100    0.0100    0.0100    0.0100    0.0100    0.0100    0.0100    0.0100
    0.0100    0.0100    0.0100    0.0100    0.0100    0.0100    0.0100    0.0100
    0.0100    0.0100    0.0100    0.0100    0.0100    0.0100    0.0100    0.0100
    0.0100    0.0100    0.0100    0.0100    0.0100    0.0100    0.0100    0.0100
    0.0100    0.0100    0.0100    0.0100    0.0100    0.0100    0.0100    0.0100
    0.0100    0.0100    0.0100    0.0100    0.0100    0.0100    0.0100    0.0100
    0.0100    0.0100    0.0100    0.0100    0.0100    0.0100    0.0100    0.0100
    0.0100    0.0100    0.0100    0.0100    0.0100    0.0100    0.0100    0.0100
    0.0100    0.0100    0.0100    0.0100    0.0100    0.0100    0.0100    0.0100
    0.0100    0.0100    0.0100    0.0100    0.0100    0.0100    0.0100    0.0100
    0.0100    0.0100    0.0100    0.0100    0.0100    0.0100    0.0100    0.0100
    0.0100    0.0100    0.0100    0.0100    0.0100    0.0100    0.0100    0.0100
    0.0100    0.0100    0.0100    0.0100    0.0100    0.0100    0.0100    0.0100
    0.0100    0.0100    0.0100    0.0100    0.0100    0.0100    0.0100    0.0100
    0.0100    0.0100    0.0100    0.0100    0.0100    0.0100    0.0100    0.0100
    0.0100    0.0100    0.0100    0.0100
   </PP_RAB>
 </PP_MESH>
  <PP_LOCAL type="real"  size=" 732" columns="4">
   -9.6045339289E+00   -9.6032994531E+00   -9.5995972421E+00   -9.5934309361E+00
   -9.5848065980E+00   -9.5737327052E+00   -9.5602201399E+00   -9.5442821757E+00
   -9.5259344614E+00   -9.5051950018E+00   -9.4820841366E+00   -9.4566245150E+00
   -9.4288410687E+00   -9.3987609818E+00   -9.3664136576E+00   -9.3318306831E+00
   -9.2950457912E+00   -9.2560948196E+00   -9.2150156676E+00   -9.1718482507E+00
   -9.1266344517E+00   -9.0794180712E+00   -9.0302447740E+00   -8.9791620345E+00
   -8.9262190791E+00   -8.8714668274E+00   -8.8149578304E+00   -8.7567462071E+00
   -8.6968875796E+00   -8.6354390053E+00   -8.5724589084E+00   -8.5080070091E+00
   -8.4421442508E+00   -8.3749327264E+00   -8.3064356026E+00   -8.2367170427E+00
   -8.1658421280E+00   -8.0938767775E+00   -8.0208876673E+00   -7.9469421468E+00
   -7.8721081558E+00   -7.7964541385E+00   -7.7200489577E+00   -7.6429618066E+00
   -7.5652621211E+00   -7.4870194892E+00   -7.4083035607E+00   -7.3291839552E+00
   -7.2497301695E+00   -7.1700114837E+00   -7.0900968662E+00   -7.0100548783E+00
   -6.9299535777E+00   -6.8498604203E+00   -6.7698421621E+00   -6.6899647597E+00
   -6.6102932699E+00   -6.5308917480E+00   -6.4518231462E+00   -6.3731492098E+00
   -6.2949303731E+00   -6.2172256544E+00   -6.1400925498E+00   -6.0635869257E+00
   -5.9877629111E+00   -5.9126727877E+00   -5.8383668801E+00   -5.7648934439E+00
   -5.6922985534E+00   -5.6206259877E+00   -5.5499171157E+00   -5.4802107799E+00
   -5.4115431793E+00   -5.3439477502E+00   -5.2774550746E+00   -5.2120919761E+00
   -5.1478889214E+00   -5.0848295460E+00   -5.0229193589E+00   -4.9622443703E+00
   -4.9027843601E+00   -4.8445519025E+00   -4.7875491878E+00   -4.7317752926E+00
   -4.6772250683E+00   -4.6238890653E+00   -4.5717533950E+00   -4.5207995883E+00
   -4.4710044529E+00   -4.4223399700E+00   -4.3747729827E+00   -4.3282668706E+00
   -4.2827850282E+00   -4.2382925460E+00   -4.1947559450E+00   -4.1521431494E+00
   -4.1104234159E+00   -4.0695672681E+00   -4.0295464357E+00   -3.9903337980E+00
   -3.9519033304E+00   -3.9142300544E+00   -3.8772899902E+00   -3.8410601132E+00
   -3.8055183114E+00   -3.7706433462E+00   -3.7364148157E+00   -3.7028131186E+00
   -3.6698194218E+00   -3.6374156277E+00   -3.6055843452E+00   -3.5743088604E+00
   -3.5435731095E+00   -3.5133616530E+00   -3.4836596508E+00   -3.4544528387E+00
   -3.4257275051E+00   -3.3974704699E+00   -3.3696690632E+00   -3.3423111055E+00
   -3.3153848881E+00   -3.2888791545E+00   -3.2627830828E+00   -3.2370862678E+00
   -3.2117787048E+00   -3.1868507733E+00   -3.1622932213E+00   -3.1380971499E+00
   -3.1142539995E+00   -3.0907555345E+00   -3.0675938305E+00   -3.0447612606E+00
   -3.0222504825E+00   -3.0000544261E+00   -2.9781662814E+00   -2.9565794870E+00
   -2.9352877183E+00   -2.9142848772E+00   -2.8935650807E+00   -2.8731226516E+00
   -2.8529521079E+00   -2.8330481536E+00   -2.8134056695E+00   -2.7940197043E+00
   -2.7748854661E+00   -2.7559983144E+00   -2.7373537521E+00   -2.7189474181E+00
   -2.7007750799E+00   -2.6828326271E+00   -2.6651160648E+00   -2.6476215072E+00
   -2.6303451718E+00   -2.6132833738E+00   -2.5964325209E+00   -2.5797891080E+00
   -2.5633497131E+00   -2.5471109920E+00   -2.5310696750E+00   -2.5152225625E+00
   -2.4995665215E+00   -2.4840984825E+00   -2.4688154359E+00   -2.4537144297E+00
   -2.4387925662E+00   -2.4240470003E+00   -2.4094749367E+00   -2.3950736284E+00
   -2.3808403744E+00   -2.3667725184E+00   -2.3528674474E+00   -2.3391225900E+00
   -2.3255354157E+00   -2.3121034338E+00   -2.2988241926E+00   -2.2856952781E+00
   -2.2727143144E+00   -2.2598789621E+00   -2.2471869188E+00   -2.2346359180E+00
   -2.2222237292E+00   -2.2099481575E+00   -2.1978070437E+00   -2.1857982638E+00
   -2.1739197290E+00   -2.1621693859E+00   -2.1505452159E+00   -2.1390452356E+00
   -2.1276674963E+00   -2.1164100844E+00   -2.1052711208E+00   -2.0942487611E+00
   -2.0833411954E+00   -2.0725466479E+00   -2.0618633768E+00   -2.0512896740E+00
   -2.0408238647E+00   -2.0304643071E+00   -2.0202093919E+00   -2.0100575417E+00
   -2.0000072106E+00   -1.9900568833E+00   -1.9802050746E+00   -1.9704503287E+00
   -1.9607912181E+00   -1.9512263434E+00   -1.9417543321E+00   -1.9323738385E+00
   -1.9230835424E+00   -1.9138821493E+00   -1.9047683890E+00   -1.8957410156E+00
   -1.8867988066E+00   -1.8779405625E+00   -1.8691651062E+00   -1.8604712825E+00
   -1.8518579576E+00   -1.8433240187E+00   -1.8348683732E+00   -1.8264899486E+00
   -1.8181876920E+00   -1.8099605693E+00   -1.8018075652E+00   -1.7937276826E+00
   -1.7857199422E+00   -1.7777833820E+00   -1.7699170573E+00   -1.7621200397E+00
   -1.7543914173E+00   -1.7467302942E+00   -1.7391357898E+00   -1.7316070390E+00
   -1.7241431916E+00   -1.7167434118E+00   -1.7094068783E+00   -1.7021327836E+00
   -1.6949203341E+00   -1.6877687494E+00   -1.6806772623E+00   -1.6736451184E+00
   -1.6666715760E+00   -1.6597559055E+00   -1.6528973896E+00   -1.6460953226E+00
   -1.6393490105E+00   -1.6326577705E+00   -1.6260209311E+00   -1.6194378314E+00
   -1.6129078215E+00   -1.6064302616E+00   -1.6000045225E+00   -1.5936299846E+00
   -1.5873060384E+00   -1.5810320841E+00   -1.5748075312E+00   -1.5686317985E+00
   -1.5625043139E+00   -1.5564245141E+00   -1.5503918447E+00   -1.5444057598E+00
   -1.5384657219E+00   -1.5325712016E+00   -1.5267216778E+00   -1.5209166372E+00
   -1.5151555743E+00   -1.5094379913E+00   -1.5037633977E+00   -1.4981313106E+00
   -1.4925412542E+00   -1.4869927596E+00   -1.4814853650E+00   -1.4760186156E+00
   -1.4705920630E+00   -1.4652052654E+00   -1.4598577876E+00   -1.4545492007E+00
   -1.4492790819E+00   -1.4440470146E+00   -1.4388525882E+00   -1.4336953979E+00
   -1.4285750448E+00   -1.4234911355E+00   -1.4184432824E+00   -1.4134311033E+00
   -1.4084542213E+00   -1.4035122649E+00   -1.3986048677E+00   -1.3937316684E+00
   -1.3888923109E+00   -1.3840864439E+00   -1.3793137208E+00   -1.3745738000E+00
   -1.3698663445E+00   -1.3651910218E+00   -1.3605475042E+00   -1.3559354681E+00
   -1.3513545944E+00   -1.3468045684E+00   -1.3422850796E+00   -1.3377958216E+00
   -1.3333364920E+00   -1.3289067925E+00   -1.3245064289E+00   -1.3201351106E+00
   -1.3157925510E+00   -1.3114784673E+00   -1.3071925803E+00   -1.3029346144E+00
   -1.2987042976E+00   -1.2945013617E+00   -1.2903255414E+00   -1.2861765754E+00
   -1.2820542054E+00   -1.2779581764E+00   -1.2738882368E+00   -1.2698441381E+00
   -1.2658256351E+00   -1.2618324854E+00   -1.2578644499E+00   -1.2539212924E+00
   -1.2500027797E+00   -1.2461086814E+00   -1.2422387701E+00   -1.2383928212E+00
   -1.2345706127E+00   -1.2307719255E+00   -1.2269965431E+00   -1.2232442519E+00
   -1.2195148405E+00   -1.2158081003E+00   -1.2121238252E+00   -1.2084618117E+00
   -1.2048218585E+00   -1.2012037669E+00   -1.1976073405E+00   -1.1940323854E+00
   -1.1904787098E+00   -1.1869461243E+00   -1.1834344417E+00   -1.1799434770E+00
   -1.1764730474E+00   -1.1730229723E+00   -1.1695930730E+00   -1.1661831732E+00
   -1.1627930985E+00   -1.1594226763E+00   -1.1560717364E+00   -1.1527401103E+00
   -1.1494276315E+00   -1.1461341354E+00   -1.1428594593E+00   -1.1396034423E+00
   -1.1363659254E+00   -1.1331467515E+00   -1.1299457650E+00   -1.1267628122E+00
   -1.1235977412E+00   -1.1204504017E+00   -1.1173206451E+00   -1.1142083245E+00
   -1.1111132947E+00   -1.1080354118E+00   -1.1049745338E+00   -1.1019305201E+00
   -1.0989032318E+00   -1.0958925315E+00   -1.0928982830E+00   -1.0899203520E+00
   -1.0869586054E+00   -1.0840129117E+00   -1.0810831406E+00   -1.0781691635E+00
   -1.0752708529E+00   -1.0723880829E+00   -1.0695207288E+00   -1.0666686673E+00
   -1.0638317763E+00   -1.0610099351E+00   -1.0582030243E+00   -1.0554109258E+00
   -1.0526335225E+00   -1.0498706987E+00   -1.0471223401E+00   -1.0443883331E+00
   -1.0416685658E+00   -1.0389629272E+00   -1.0362713075E+00   -1.0335935979E+00
   -1.0309296910E+00   -1.0282794803E+00   -1.0256428604E+00   -1.0230197270E+00
   -1.0204099770E+00   -1.0178135082E+00   -1.0152302195E+00   -1.0126600107E+00
   -1.0101027827E+00   -1.0075584376E+00   -1.0050268781E+00   -1.0025080081E+00
   -1.0000017325E+00   -9.9750795705E-01   -9.9502658844E-01   -9.9255753432E-01
   -9.9010070325E-01   -9.8765600470E-01   -9.8522334900E-01   -9.8280264739E-01
   -9.8039381198E-01   -9.7799675573E-01   -9.7561139244E-01   -9.7323763677E-01
   -9.7087540420E-01   -9.6852461102E-01   -9.6618517434E-01   -9.6385701206E-01
   -9.6154004288E-01   -9.5923418627E-01   -9.5693936247E-01   -9.5465549250E-01
   -9.5238249811E-01   -9.5012030180E-01   -9.4786882682E-01   -9.4562799711E-01
   -9.4339773736E-01   -9.4117797296E-01   -9.3896863000E-01   -9.3676963527E-01
   -9.3458091621E-01   -9.3240240099E-01   -9.3023401840E-01   -9.2807569792E-01
   -9.2592736967E-01   -9.2378896443E-01   -9.2166041360E-01   -9.1954164922E-01
   -9.1743260395E-01   -9.1533321107E-01   -9.1324340446E-01   -9.1116311863E-01
   -9.0909228865E-01   -9.0703085019E-01   -9.0497873952E-01   -9.0293589347E-01
   -9.0090224944E-01   -8.9887774539E-01   -8.9686231984E-01   -8.9485591186E-01
   -8.9285846107E-01   -8.9086990762E-01   -8.8889019219E-01   -8.8691925600E-01
   -8.8495704077E-01   -8.8300348875E-01   -8.8105854270E-01   -8.7912214587E-01
   -8.7719424202E-01   -8.7527477539E-01   -8.7336369072E-01   -8.7146093323E-01
   -8.6956644860E-01   -8.6768018300E-01   -8.6580208306E-01   -8.6393209588E-01
   -8.6207016899E-01   -8.6021625040E-01   -8.5837028855E-01   -8.5653223232E-01
   -8.5470203105E-01   -8.5287963448E-01   -8.5106499279E-01   -8.4925805660E-01
   -8.4745877693E-01   -8.4566710522E-01   -8.4388299330E-01   -8.4210639345E-01
   -8.4033725831E-01   -8.3857554094E-01   -8.3682119477E-01   -8.3507417366E-01
   -8.3333443180E-01   -8.3160192381E-01   -8.2987660465E-01   -8.2815842968E-01
   -8.2644735462E-01   -8.2474333554E-01   -8.2304632890E-01   -8.2135629149E-01
   -8.1967318047E-01   -8.1799695336E-01   -8.1632756799E-01   -8.1466498257E-01
   -8.1300915563E-01   -8.1136004606E-01   -8.0971761305E-01   -8.0808181614E-01
   -8.0645261519E-01   -8.0482997040E-01   -8.0321384226E-01   -8.0160419159E-01
   -8.0000097953E-01   -7.9840416753E-01   -7.9681371734E-01   -7.9522959102E-01
   -7.9365175092E-01   -7.9208015970E-01   -7.9051478031E-01   -7.8895557599E-01
   -7.8740251028E-01   -7.8585554700E-01   -7.8431465025E-01   -7.8277978442E-01
   -7.8125091416E-01   -7.7972800442E-01   -7.7821102041E-01   -7.7669992760E-01
   -7.7519469175E-01   -7.7369527888E-01   -7.7220165525E-01   -7.7071378740E-01
   -7.6923164213E-01   -7.6775518648E-01   -7.6628438776E-01   -7.6481921352E-01
   -7.6335963155E-01   -7.6190560991E-01   -7.6045711687E-01   -7.5901412097E-01
   -7.5757659097E-01   -7.5614449587E-01   -7.5471780491E-01   -7.5329648756E-01
   -7.5188051352E-01   -7.5046985271E-01   -7.4906447528E-01   -7.4766435161E-01
   -7.4626945229E-01   -7.4487974813E-01   -7.4349521016E-01   -7.4211580964E-01
   -7.4074151801E-01   -7.3937230695E-01   -7.3800814834E-01   -7.3664901426E-01
   -7.3529487701E-01   -7.3394570908E-01   -7.3260148316E-01   -7.3126217215E-01
   -7.2992774914E-01   -7.2859818743E-01   -7.2727346050E-01   -7.2595354202E-01
   -7.2463840587E-01   -7.2332802609E-01   -7.2202237693E-01   -7.2072143282E-01
   -7.1942516837E-01   -7.1813355838E-01   -7.1684657783E-01   -7.1556420186E-01
   -7.1428640582E-01   -7.1301316521E-01   -7.1174445571E-01   -7.1048025318E-01
   -7.0922053364E-01   -7.0796527330E-01   -7.0671444851E-01   -7.0546803581E-01
   -7.0422601190E-01   -7.0298835363E-01   -7.0175503803E-01   -7.0052604228E-01
   -6.9930134373E-01   -6.9808091987E-01   -6.9686474837E-01   -6.9565280704E-01
   -6.9444507385E-01   -6.9324152691E-01   -6.9204214451E-01   -6.9084690505E-01
   -6.8965578712E-01   -6.8846876943E-01   -6.8728583085E-01   -6.8610695038E-01
   -6.8493210718E-01   -6.8376128055E-01   -6.8259444992E-01   -6.8143159487E-01
   -6.8027269512E-01   -6.7911773052E-01   -6.7796668106E-01   -6.7681952686E-01
   -6.7567624820E-01   -6.7453682546E-01   -6.7340123916E-01   -6.7226946997E-01
   -6.7114149867E-01   -6.7001730618E-01   -6.6889687353E-01   -6.6778018190E-01
   -6.6666721259E-01   -6.6555794700E-01   -6.6445236669E-01   -6.6335045333E-01
   -6.6225218869E-01   -6.6115755468E-01   -6.6006653333E-01   -6.5897910679E-01
   -6.5789525732E-01   -6.5681496729E-01   -6.5573821921E-01   -6.5466499568E-01
   -6.5359527942E-01   -6.5252905326E-01   -6.5146630017E-01   -6.5040700319E-01
   -6.4935114549E-01   -6.4829871036E-01   -6.4724968117E-01   -6.4620404142E-01
   -6.4516177470E-01   -6.4412286473E-01   -6.4308729532E-01   -6.4205505037E-01
   -6.4102611391E-01   -6.4000047004E-01   -6.3897810301E-01   -6.3795899712E-01
   -6.3694313679E-01   -6.3593050656E-01   -6.3492109103E-01   -6.3391487492E-01
   -6.3291184305E-01   -6.3191198032E-01   -6.3091527173E-01   -6.2992170240E-01