<UPF version="2.0.1">
  <PP_INFO>

 This pseudopotential file has been produced using the code
 ONCVPSP  (Optimized Norm-Conservinng Vanderbilt PSeudopotential)
 fully-relativistic version 3.3.1 12/12/2017 by D. R. Hamann
 The code is available through a link at URL www.mat-simresearch.com.
 Documentation with the package provides a full discription of the
 input data below.


 While it is not required under the terms of the GNU GPL, it is
 suggested that you cite D. R. Hamann, Phys. Rev. B 88, 085117 (2013)
 in any publication using these pseudopotentials.

    <PP_INPUTFILE>
# ATOM AND REFERENCE CONFIGURATION
# atsym  z   nc   nv     iexc    psfile
  He  2.00    0    1       3      upf
#
#   n    l    f        energy (Ha)
    1    0    2.00
#
# PSEUDOPOTENTIAL AND OPTIMIZATION
# lmax
    0
#
#   l,   rc,     ep,   ncon, nbas, qcut
    0   1.98530  -0.57022    5    8   7.17231
#
# LOCAL POTENTIAL
# lloc, lpopt,  rc(5),   dvloc0
    4    5   0.89431      0.00000
#
# VANDERBILT-KLEINMAN-BYLANDER PROJECTORs
# l, nproj, debl
    0    2   1.34022
#
# MODEL CORE CHARGE
# icmod, fcfact, rcfact
    0   0.00000   0.00000
#
# LOG DERIVATIVE ANALYSIS
# epsh1, epsh2, depsh
   -5.00    3.00    0.02
#
# OUTPUT GRID
# rlmax, drl
    6.00    0.01
#
# TEST CONFIGURATIONS
# ncnf
    0
# nvcnf
#   n    l    f
    </PP_INPUTFILE>
  </PP_INFO>
  <!--                               -->
  <!-- END OF HUMAN READABLE SECTION -->
  <!--                               -->
    <PP_HEADER
       generated="Generated using ONCVPSP code by D. R. Hamann"
       author="anonymous"
       date="220414"
       comment=""
       element="He"
       pseudo_type="NC"
       relativistic="full"
       is_ultrasoft="F"
       is_paw="F"
       is_coulomb="F"
       has_so="T"
       has_wfc="F"
       has_gipaw="F"
       core_correction="F"
       functional="PZ"
       z_valence="    2.00"
       total_psenergy="  -5.48433547818E+00"
       rho_cutoff="   7.31000000000E+00"
       l_max="0"
       l_local="-1"
       mesh_size="   732"
       number_of_wfc="1"
       number_of_proj="2"/>
 <PP_MESH>
   <PP_R type="real"  size=" 732" columns="8">
    0.0000    0.0100    0.0200    0.0300    0.0400    0.0500    0.0600    0.0700
    0.0800    0.0900    0.1000    0.1100    0.1200    0.1300    0.1400    0.1500
    0.1600    0.1700    0.1800    0.1900    0.2000    0.2100    0.2200    0.2300
    0.2400    0.2500    0.2600    0.2700    0.2800    0.2900    0.3000    0.3100
    0.3200    0.3300    0.3400    0.3500    0.3600    0.3700    0.3800    0.3900
    0.4000    0.4100    0.4200    0.4300    0.4400    0.4500    0.4600    0.4700
    0.4800    0.4900    0.5000    0.5100    0.5200    0.5300    0.5400    0.5500
    0.5600    0.5700    0.5800    0.5900    0.6000    0.6100    0.6200    0.6300
    0.6400    0.6500    0.6600    0.6700    0.6800    0.6900    0.7000    0.7100
    0.7200    0.7300    0.7400    0.7500    0.7600    0.7700    0.7800    0.7900
    0.8000    0.8100    0.8200    0.8300    0.8400    0.8500    0.8600    0.8700
    0.8800    0.8900    0.9000    0.9100    0.9200    0.9300    0.9400    0.9500
    0.9600    0.9700    0.9800    0.9900    1.0000    1.0100    1.0200    1.0300
    1.0400    1.0500    1.0600    1.0700    1.0800    1.0900    1.1000    1.1100
    1.1200    1.1300    1.1400    1.1500    1.1600    1.1700    1.1800    1.1900
    1.2000    1.2100    1.2200    1.2300    1.2400    1.2500    1.2600    1.2700
    1.2800    1.2900    1.3000    1.3100    1.3200    1.3300    1.3400    1.3500
    1.3600    1.3700    1.3800    1.3900    1.4000    1.4100    1.4200    1.4300
    1.4400    1.4500    1.4600    1.4700    1.4800    1.4900    1.5000    1.5100
    1.5200    1.5300    1.5400    1.5500    1.5600    1.5700    1.5800    1.5900
    1.6000    1.6100    1.6200    1.6300    1.6400    1.6500    1.6600    1.6700
    1.6800    1.6900    1.7000    1.7100    1.7200    1.7300    1.7400    1.7500
    1.7600    1.7700    1.7800    1.7900    1.8000    1.8100    1.8200    1.8300
    1.8400    1.8500    1.8600    1.8700    1.8800    1.8900    1.9000    1.9100
    1.9200    1.9300    1.9400    1.9500    1.9600    1.9700    1.9800    1.9900
    2.0000    2.0100    2.0200    2.0300    2.0400    2.0500    2.0600    2.0700
    2.0800    2.0900    2.1000    2.1100    2.1200    2.1300    2.1400    2.1500
    2.1600    2.1700    2.1800    2.1900    2.2000    2.2100    2.2200    2.2300
    2.2400    2.2500    2.2600    2.2700    2.2800    2.2900    2.3000    2.3100
    2.3200    2.3300    2.3400    2.3500    2.3600    2.3700    2.3800    2.3900
    2.4000    2.4100    2.4200    2.4300    2.4400    2.4500    2.4600    2.4700
    2.4800    2.4900    2.5000    2.5100    2.5200    2.5300    2.5400    2.5500
    2.5600    2.5700    2.5800    2.5900    2.6000    2.6100    2.6200    2.6300
    2.6400    2.6500    2.6600    2.6700    2.6800    2.6900    2.7000    2.7100
    2.7200    2.7300    2.7400    2.7500    2.7600    2.7700    2.7800    2.7900
    2.8000    2.8100    2.8200    2.8300    2.8400    2.8500    2.8600    2.8700
    2.8800    2.8900    2.9000    2.9100    2.9200    2.9300    2.9400    2.9500
    2.9600    2.9700    2.9800    2.9900    3.0000    3.0100    3.0200    3.0300
    3.0400    3.0500    3.0600    3.0700    3.0800    3.0900    3.1000    3.1100
    3.1200    3.1300    3.1400    3.1500    3.1600    3.1700    3.1800    3.1900
    3.2000    3.2100    3.2200    3.2300    3.2400    3.2500    3.2600    3.2700
    3.2800    3.2900    3.3000    3.3100    3.3200    3.3300    3.3400    3.3500
    3.3600    3.3700    3.3800    3.3900    3.4000    3.4100    3.4200    3.4300
    3.4400    3.4500    3.4600    3.4700    3.4800    3.4900    3.5000    3.5100
    3.5200    3.5300    3.5400    3.5500    3.5600    3.5700    3.5800    3.5900
    3.6000    3.6100    3.6200    3.6300    3.6400    3.6500    3.6600    3.6700
    3.6800    3.6900    3.7000    3.7100    3.7200    3.7300    3.7400    3.7500
    3.7600    3.7700    3.7800    3.7900    3.8000    3.8100    3.8200    3.8300
    3.8400    3.8500    3.8600    3.8700    3.8800    3.8900    3.9000    3.9100
    3.9200    3.9300    3.9400    3.9500    3.9600    3.9700    3.9800    3.9900
    4.0000    4.0100    4.0200    4.0300    4.0400    4.0500    4.0600    4.0700
    4.0800    4.0900    4.1000    4.1100    4.1200    4.1300    4.1400    4.1500
    4.1600    4.1700    4.1800    4.1900    4.2000    4.2100    4.2200    4.2300
    4.2400    4.2500    4.2600    4.2700    4.2800    4.2900    4.3000    4.3100
    4.3200    4.3300    4.3400    4.3500    4.3600    4.3700    4.3800    4.3900
    4.4000    4.4100    4.4200    4.4300    4.4400    4.4500    4.4600    4.4700
    4.4800    4.4900    4.5000    4.5100    4.5200    4.5300    4.5400    4.5500
    4.5600    4.5700    4.5800    4.5900    4.6000    4.6100    4.6200    4.6300
    4.6400    4.6500    4.6600    4.6700    4.6800    4.6900    4.7000    4.7100
    4.7200    4.7300    4.7400    4.7500    4.7600    4.7700    4.7800    4.7900
    4.8000    4.8100    4.8200    4.8300    4.8400    4.8500    4.8600    4.8700
    4.8800    4.8900    4.9000    4.9100    4.9200    4.9300    4.9400    4.9500
    4.9600    4.9700    4.9800    4.9900    5.0000    5.0100    5.0200    5.0300
    5.0400    5.0500    5.0600    5.0700    5.0800    5.0900    5.1000    5.1100
    5.1200    5.1300    5.1400    5.1500    5.1600    5.1700    5.1800    5.1900
    5.2000    5.2100    5.2200    5.2300    5.2400    5.2500    5.2600    5.2700
    5.2800    5.2900    5.3000    5.3100    5.3200    5.3300    5.3400    5.3500
    5.3600    5.3700    5.3800    5.3900    5.4000    5.4100    5.4200    5.4300
    5.4400    5.4500    5.4600    5.4700    5.4800    5.4900    5.5000    5.5100
    5.5200    5.5300    5.5400    5.5500    5.5600    5.5700    5.5800    5.5900
    5.6000    5.6100    5.6200    5.6300    5.6400    5.6500    5.6600    5.6700
    5.6800    5.6900    5.7000    5.7100    5.7200    5.7300    5.7400    5.7500
    5.7600    5.7700    5.7800    5.7900    5.8000    5.8100    5.8200    5.8300
    5.8400    5.8500    5.8600    5.8700    5.8800    5.8900    5.9000    5.9100
    5.9200    5.9300    5.9400    5.9500    5.9600    5.9700    5.9800    5.9900
    6.0000    6.0100    6.0200    6.0300    6.0400    6.0500    6.0600    6.0700
    6.0800    6.0900    6.1000    6.1100    6.1200    6.1300    6.1400    6.1500
    6.1600    6.1700    6.1800    6.1900    6.2000    6.2100    6.2200    6.2300
    6.2400    6.2500    6.2600    6.2700    6.2800    6.2900    6.3000    6.3100
    6.3200    6.3300    6.3400    6.3500    6.3600    6.3700    6.3800    6.3900
    6.4000    6.4100    6.4200    6.4300    6.4400    6.4500    6.4600    6.4700
    6.4800    6.4900    6.5000    6.5100    6.5200    6.5300    6.5400    6.5500
    6.5600    6.5700    6.5800    6.5900    6.6000    6.6100    6.6200    6.6300
    6.6400    6.6500    6.6600    6.6700    6.6800    6.6900    6.7000    6.7100
    6.7200    6.7300    6.7400    6.7500    6.7600    6.7700    6.7800    6.7900
    6.8000    6.8100    6.8200    6.8300    6.8400    6.8500    6.8600    6.8700
    6.8800    6.8900    6.9000    6.9100    6.9200    6.9300    6.9400    6.9500
    6.9600    6.9700    6.9800    6.9900    7.0000    7.0100    7.0200    7.0300
    7.0400    7.0500    7.0600    7.0700    7.0800    7.0900    7.1000    7.1100
    7.1200    7.1300    7.1400    7.1500    7.1600    7.1700    7.1800    7.1900
    7.2000    7.2100    7.2200    7.2300    7.2400    7.2500    7.2600    7.2700
    7.2800    7.2900    7.3000    7.3100
   </PP_R>
   <PP_RAB type="real"  size=" 732" columns="8">
    0.0100    0.0100    0.0100    0.0100    0.0100    0.0100    0.0100    0.0100
    0.0100    0.0100    0.0100    0.0100    0.0100    0.0100    0.0100    0.0100
    0.0100    0.0100    0.0100    0.0100    0.0100    0.0100    0.0100    0.0100
    0.0100    0.0100    0.0100    0.0100    0.0100    0.0100    0.0100    0.0100
    0.0100    0.0100    0.0100    0.0100    0.0100    0.0100    0.0100    0.0100
    0.0100    0.0100    0.0100    0.0100    0.0100    0.0100    0.0100    0.0100
    0.0100    0.0100    0.0100    0.0100    0.0100    0.0100    0.0100    0.0100
    0.0100    0.0100    0.0100    0.0100    0.0100    0.0100    0.0100    0.0100
    0.0100    0.0100    0.0100    0.0100    0.0100    0.0100    0.0100    0.0100
    0.0100    0.0100    0.0100    0.0100    0.0100    0.0100    0.0100    0.0100
    0.0100    0.0100    0.0100    0.0100    0.0100    0.0100    0.0100    0.0100
    0.0100    0.0100    0.0100    0.0100    0.0100    0.0100    0.0100    0.0100
    0.0100    0.0100    0.0100    0.0100    0.0100    0.0100    0.0100    0.0100
    0.0100    0.0100    0.0100    0.0100    0.0100    0.0100    0.0100    0.0100
    0.0100    0.0100    0.0100    0.0100    0.0100    0.0100    0.0100    0.0100
    0.0100    0.0100    0.0100    0.0100    0.0100    0.0100    0.0100    0.0100
    0.0100    0.0100    0.0100    0.0100    0.0100    0.0100    0.0100    0.0100
    0.0100    0.0100    0.0100    0.0100    0.0100    0.0100    0.0100    0.0100
    0.0100    0.0100    0.0100    0.0100    0.0100    0.0100    0.0100    0.0100
    0.0100    0.0100    0.0100    0.0100    0.0100    0.0100    0.0100    0.0100
    0.0100    0.0100    0.0100    0.0100    0.0100    0.0100    0.0100    0.0100
    0.0100    0.0100    0.0100    0.0100    0.0100    0.0100    0.0100    0.0100
    0.0100    0.0100    0.0100    0.0100    0.0100    0.0100    0.0100    0.0100
    0.0100    0.0100    0.0100    0.0100    0.0100    0.0100    0.0100    0.0100
    0.0100    0.0100    0.0100    0.0100    0.0100    0.0100    0.0100    0.0100
    0.0100    0.0100    0.0100    0.0100    0.0100    0.0100    0.0100    0.0100
    0.0100    0.0100    0.0100    0.0100    0.0100    0.0100    0.0100    0.0100
    0.0100    0.0100    0.0100    0.0100    0.0100    0.0100    0.0100    0.0100
    0.0100    0.0100    0.0100    0.0100    0.0100    0.0100    0.0100    0.0100
    0.0100    0.0100    0.0100    0.0100    0.0100    0.0100    0.0100    0.0100
    0.0100    0.0100    0.0100    0.0100    0.0100    0.0100    0.0100    0.0100
    0.0100    0.0100    0.0100    0.0100    0.0100    0.0100    0.0100    0.0100
    0.0100    0.0100    0.0100    0.0100    0.0100    0.0100    0.0100    0.0100
    0.0100    0.0100    0.0100    0.0100    0.0100    0.0100    0.0100    0.0100
    0.0100    0.0100    0.0100    0.0100    0.0100    0.0100    0.0100    0.0100
    0.0100    0.0100    0.0100    0.0100    0.0100    0.0100    0.0100    0.0100
    0.0100    0.0100    0.0100    0.0100    0.0100    0.0100    0.0100    0.0100
    0.0100    0.0100    0.0100    0.0100    0.0100    0.0100    0.0100    0.0100
    0.0100    0.0100    0.0100    0.0100    0.0100    0.0100    0.0100    0.0100
    0.0100    0.0100    0.0100    0.0100    0.0100    0.0100    0.0100    0.0100
    0.0100    0.0100    0.0100    0.0100    0.0100    0.0100    0.0100    0.0100
    0.0100    0.0100    0.0100    0.0100    0.0100    0.0100    0.0100    0.0100
    0.0100    0.0100    0.0100    0.0100    0.0100    0.0100    0.0100    0.0100
    0.0100    0.0100    0.0100    0.0100    0.0100    0.0100    0.0100    0.0100
    0.0100    0.0100    0.0100    0.0100    0.0100    0.0100    0.0100    0.0100
    0.0100    0.0100    0.0100    0.0100    0.0100    0.0100    0.0100    0.0100
    0.0100    0.0100    0.0100    0.0100    0.0100    0.0100    0.0100    0.0100
    0.0100    0.0100    0.0100    0.0100    0.0100    0.0100    0.0100    0.0100
    0.0100    0.0100    0.0100    0.0100    0.0100    0.0100    0.0100    0.0100
    0.0100    0.0100    0.0100    0.0100    0.0100    0.0100    0.0100    0.0100
    0.0100    0.0100    0.0100    0.0100    0.0100    0.0100    0.0100    0.0100
    0.0100    0.0100    0.0100    0.0100    0.0100    0.0100    0.0100    0.0100
    0.0100    0.0100    0.0100    0.0100    0.0100    0.0100    0.0100    0.0100
    0.0100    0.0100    0.0100    0.0100    0.0100    0.0100    0.0100    0.0100
    0.0100    0.0100    0.0100    0.0100    0.0100    0.0100    0.0100    0.0100
    0.0100    0.0100    0.0100    0.0100    0.0100    0.0100    0.0100    0.0100
    0.0100    0.0100    0.0100    0.0100    0.0100    0.0100    0.0100    0.0100
    0.0100    0.0100    0.0100    0.0100    0.0100    0.0100    0.0100    0.0100
    0.0100    0.0100    0.0100    0.0100    0.0100    0.0100    0.0100    0.0100
    0.0100    0.0100    0.0100    0.0100    0.0100    0.0100    0.0100    0.0100
    0.0100    0.0100    0.0100    0.0100    0.0100    0.0100    0.0100    0.0100
    0.0100    0.0100    0.0100    0.0100    0.0100    0.0100    0.0100    0.0100
    0.0100    0.0100    0.0100    0.0100    0.0100    0.0100    0.0100    0.0100
    0.0100    0.0100    0.0100    0.0100    0.0100    0.0100    0.0100    0.0100
    0.0100    0.0100    0.0100    0.0100    0.0100    0.0100    0.0100    0.0100
    0.0100    0.0100    0.0100    0.0100    0.0100    0.0100    0.0100    0.0100
    0.0100    0.0100    0.0100    0.0100    0.0100    0.0100    0.0100    0.0100
    0.0100    0.0100    0.0100    0.0100    0.0100    0.0100    0.0100    0.0100
    0.0100    0.0100    0.0100    0.0100    0.0100    0.0100    0.0100    0.0100
    0.0100    0.0100    0.0100    0.0100    0.0100    0.0100    0.0100    0.0100
    0.0100    0.0100    0.0100    0.0100    0.0100    0.0100    0.0100    0.0100
    0.0100    0.0100    0.0100    0.0100    0.0100    0.0100    0.0100    0.0100
    0.0100    0.0100    0.0100    0.0100    0.0100    0.0100    0.0100    0.0100
    0.0100    0.0100    0.0100    0.0100    0.0100    0.0100    0.0100    0.0100
    0.0100    0.0100    0.0100    0.0100    0.0100    0.0100    0.0100    0.0100
    0.0100    0.0100    0.0100    0.0100    0.0100    0.0100    0.0100    0.0100
    0.0100    0.0100    0.0100    0.0100    0.0100    0.0100    0.0100    0.0100
    0.0100    0.0100    0.0100    0.0100    0.0100    0.0100    0.0100    0.0100
    0.0100    0.0100    0.0100    0.0100    0.0100    0.0100    0.0100    0.0100
    0.0100    0.0100    0.0100    0.0100    0.0100    0.0100    0.0100    0.0100
    0.0100    0.0100    0.0100    0.0100    0.0100    0.0100    0.0100    0.0100
    0.0100    0.0100    0.0100    0.0100    0.0100    0.0100    0.0100    0.0100
    0.0100    0.0100    0.0100    0.0100    0.0100    0.0100    0.0100    0.0100
    0.0100    0.0100    0.0100    0.0100    0.0100    0.0100    0.0100    0.0100
    0.0100    0.0100    0.0100    0.0100    0.0100    0.0100    0.0100    0.0100
    0.0100    0.0100    0.0100    0.0100    0.0100    0.0100    0.0100    0.0100
    0.0100    0.0100    0.0100    0.0100    0.0100    0.0100    0.0100    0.0100
    0.0100    0.0100    0.0100    0.0100    0.0100    0.0100    0.0100    0.0100
    0.0100    0.0100    0.0100    0.0100    0.0100    0.0100    0.0100    0.0100
    0.0100    0.0100    0.0100    0.0100    0.0100    0.0100    0.0100    0.0100
    0.0100    0.0100    0.0100    0.0100    0.0100    0.0100    0.0100    0.0100
    0.0100    0.0100    0.0100    0.0100
   </PP_RAB>
 </PP_MESH>
  <PP_LOCAL type="real"  size=" 732" columns="4">
   -9.6045163675E+00   -9.6032818945E+00   -9.5995796916E+00   -9.5934133992E+00
   -9.5847890801E+00   -9.5737152117E+00   -9.5602026763E+00   -9.5442647472E+00
   -9.5259170732E+00   -9.5051776593E+00   -9.4820668449E+00   -9.4566072792E+00
   -9.4288238940E+00   -9.3987438731E+00   -9.3663966197E+00   -9.3318137209E+00
   -9.2950289094E+00   -9.2560780228E+00   -9.2149989604E+00   -9.1718316374E+00
   -9.1266179368E+00   -9.0794016587E+00   -9.0302284681E+00   -8.9791458391E+00
   -8.9262029981E+00   -8.8714508645E+00   -8.8149419891E+00   -8.7567304910E+00
   -8.6968719919E+00   -8.6354235492E+00   -8.5724435870E+00   -8.5079918252E+00
   -8.4421292072E+00   -8.3749178257E+00   -8.3064208473E+00   -8.2367024352E+00
   -8.1658276703E+00   -8.0938624718E+00   -8.0208735153E+00   -7.9469281505E+00
   -7.8720943167E+00   -7.7964404581E+00   -7.7200354372E+00   -7.6429484473E+00
   -7.5652489240E+00   -7.4870064552E+00   -7.4082906906E+00   -7.3291712497E+00
   -7.2497176291E+00   -7.1699991086E+00   -7.0900846568E+00   -7.0100428349E+00
   -6.9299417001E+00   -6.8498487084E+00   -6.7698306157E+00   -6.6899533786E+00
   -6.6102820534E+00   -6.5308806958E+00   -6.4518122575E+00   -6.3731384839E+00
   -6.2949198091E+00   -6.2172152515E+00   -6.1400823068E+00   -6.0635768415E+00
   -5.9877529845E+00   -5.9126630174E+00   -5.8383572647E+00   -5.7648839821E+00
   -5.6922892436E+00   -5.6206168283E+00   -5.5499081051E+00   -5.4802019165E+00
   -5.4115344612E+00   -5.3439391756E+00   -5.2774466417E+00   -5.2120836831E+00
   -5.1478807663E+00   -5.0848215268E+00   -5.0229114735E+00   -4.9622366170E+00
   -4.9027767368E+00   -4.8445444071E+00   -4.7875418183E+00   -4.7317680469E+00
   -4.6772179443E+00   -4.6238820610E+00   -4.5717465082E+00   -4.5207928171E+00
   -4.4709977953E+00   -4.4223334239E+00   -4.3747665463E+00   -4.3282605418E+00
   -4.2827788053E+00   -4.2382864271E+00   -4.1947499283E+00   -4.1521372332E+00
   -4.1104175984E+00   -4.0695615476E+00   -4.0295408107E+00   -3.9903282667E+00
   -3.9518978913E+00   -3.9142247058E+00   -3.8772847307E+00   -3.8410549411E+00
   -3.8055132252E+00   -3.7706383446E+00   -3.7364098970E+00   -3.7028082815E+00
   -3.6698146647E+00   -3.6374109494E+00   -3.6055797442E+00   -3.5743043352E+00
   -3.5435686587E+00   -3.5133572754E+00   -3.4836553449E+00   -3.4544486032E+00
   -3.4257233386E+00   -3.3974663711E+00   -3.3696650309E+00   -3.3423071383E+00
   -3.3153809847E+00   -3.2888753136E+00   -3.2627793031E+00   -3.2370825481E+00
   -3.2117750438E+00   -3.1868471698E+00   -3.1622896740E+00   -3.1380936577E+00
   -3.1142505611E+00   -3.0907521487E+00   -3.0675904962E+00   -3.0447579766E+00
   -3.0222472477E+00   -3.0000512393E+00   -2.9781631416E+00   -2.9565763930E+00
   -2.9352846691E+00   -2.9142818716E+00   -2.8935621178E+00   -2.8731197304E+00
   -2.8529492273E+00   -2.8330453127E+00   -2.8134028673E+00   -2.7940169398E+00
   -2.7748827385E+00   -2.7559956228E+00   -2.7373510956E+00   -2.7189447958E+00
   -2.7007724910E+00   -2.6828300709E+00   -2.6651135405E+00   -2.6476190139E+00
   -2.6303427089E+00   -2.6132809405E+00   -2.5964301165E+00   -2.5797867320E+00
   -2.5633473647E+00   -2.5471086706E+00   -2.5310673800E+00   -2.5152202933E+00
   -2.4995642777E+00   -2.4840962634E+00   -2.4688132410E+00   -2.4537122584E+00
   -2.4387904182E+00   -2.4240448750E+00   -2.4094728338E+00   -2.3950715473E+00
   -2.3808383148E+00   -2.3667704798E+00   -2.3528654294E+00   -2.3391205923E+00
   -2.3255334379E+00   -2.3121014757E+00   -2.2988222536E+00   -2.2856933581E+00
   -2.2727124129E+00   -2.2598770790E+00   -2.2471850536E+00   -2.2346340705E+00
   -2.2222218991E+00   -2.2099463446E+00   -2.1978052477E+00   -2.1857964844E+00
   -2.1739179660E+00   -2.1621676391E+00   -2.1505434850E+00   -2.1390435203E+00
   -2.1276657965E+00   -2.1164083998E+00   -2.1052694513E+00   -2.0942471065E+00
   -2.0833395554E+00   -2.0725450223E+00   -2.0618617654E+00   -2.0512880766E+00
   -2.0408222812E+00   -2.0304627373E+00   -2.0202078356E+00   -2.0100559987E+00
   -2.0000056807E+00   -1.9900553664E+00   -1.9802035705E+00   -1.9704488372E+00
   -1.9607897392E+00   -1.9512248768E+00   -1.9417528777E+00   -1.9323723961E+00
   -1.9230821119E+00   -1.9138807305E+00   -1.9047669819E+00   -1.8957396199E+00
   -1.8867974222E+00   -1.8779391893E+00   -1.8691637441E+00   -1.8604699313E+00
   -1.8518566173E+00   -1.8433226890E+00   -1.8348670541E+00   -1.8264886400E+00
   -1.8181863937E+00   -1.8099592812E+00   -1.8018062872E+00   -1.7937264146E+00
   -1.7857186840E+00   -1.7777821337E+00   -1.7699158186E+00   -1.7621188106E+00
   -1.7543901977E+00   -1.7467290839E+00   -1.7391345888E+00   -1.7316058472E+00
   -1.7241420089E+00   -1.7167422381E+00   -1.7094057134E+00   -1.7021316276E+00
   -1.6949191868E+00   -1.6877676107E+00   -1.6806761321E+00   -1.6736439967E+00
   -1.6666704627E+00   -1.6597548006E+00   -1.6528962929E+00   -1.6460942340E+00
   -1.6393479299E+00   -1.6326566979E+00   -1.6260198664E+00   -1.6194367746E+00
   -1.6129067724E+00   -1.6064292203E+00   -1.6000034887E+00   -1.5936289583E+00
   -1.5873050197E+00   -1.5810310728E+00   -1.5748065272E+00   -1.5686308018E+00
   -1.5625033244E+00   -1.5564235318E+00   -1.5503908695E+00   -1.5444047916E+00
   -1.5384647606E+00   -1.5325702472E+00   -1.5267207302E+00   -1.5209156964E+00
   -1.5151546403E+00   -1.5094370639E+00   -1.5037624770E+00   -1.4981303964E+00
   -1.4925403465E+00   -1.4869918583E+00   -1.4814844702E+00   -1.4760177271E+00
   -1.4705911807E+00   -1.4652043894E+00   -1.4598569178E+00   -1.4545483370E+00
   -1.4492782243E+00   -1.4440461630E+00   -1.4388517426E+00   -1.4336945582E+00
   -1.4285742110E+00   -1.4234903075E+00   -1.4184424603E+00   -1.4134302869E+00
   -1.4084534106E+00   -1.4035114598E+00   -1.3986040682E+00   -1.3937308745E+00
   -1.3888915226E+00   -1.3840856610E+00   -1.3793129433E+00   -1.3745730279E+00
   -1.3698655778E+00   -1.3651902604E+00   -1.3605467480E+00   -1.3559347172E+00
   -1.3513538487E+00   -1.3468038279E+00   -1.3422843442E+00   -1.3377950912E+00
   -1.3333357666E+00   -1.3289060722E+00   -1.3245057135E+00   -1.3201344001E+00
   -1.3157918454E+00   -1.3114777666E+00   -1.3071918844E+00   -1.3029339232E+00
   -1.2987036113E+00   -1.2945006800E+00   -1.2903248644E+00   -1.2861759031E+00
   -1.2820535376E+00   -1.2779575132E+00   -1.2738875782E+00   -1.2698434840E+00
   -1.2658249854E+00   -1.2618318402E+00   -1.2578638091E+00   -1.2539206560E+00
   -1.2500021476E+00   -1.2461080536E+00   -1.2422381466E+00   -1.2383922019E+00
   -1.2345699976E+00   -1.2307713146E+00   -1.2269959365E+00   -1.2232436493E+00
   -1.2195142420E+00   -1.2158075059E+00   -1.2121232349E+00   -1.2084612254E+00
   -1.2048212761E+00   -1.2012031885E+00   -1.1976067661E+00   -1.1940318149E+00
   -1.1904781432E+00   -1.1869455615E+00   -1.1834338827E+00   -1.1799429218E+00
   -1.1764724960E+00   -1.1730224246E+00   -1.1695925291E+00   -1.1661826330E+00
   -1.1627925619E+00   -1.1594221434E+00   -1.1560712071E+00   -1.1527395846E+00
   -1.1494271093E+00   -1.1461336168E+00   -1.1428589442E+00   -1.1396029307E+00
   -1.1363654173E+00   -1.1331462468E+00   -1.1299452637E+00   -1.1267623143E+00
   -1.1235972467E+00   -1.1204499106E+00   -1.1173201573E+00   -1.1142078400E+00
   -1.1111128134E+00   -1.1080349338E+00   -1.1049740590E+00   -1.1019300486E+00
   -1.0989027635E+00   -1.0958920663E+00   -1.0928978210E+00   -1.0899198931E+00
   -1.0869581497E+00   -1.0840124590E+00   -1.0810826910E+00   -1.0781687170E+00
   -1.0752704094E+00   -1.0723876424E+00   -1.0695202913E+00   -1.0666682327E+00
   -1.0638313446E+00   -1.0610095064E+00   -1.0582025985E+00   -1.0554105029E+00
   -1.0526331024E+00   -1.0498702815E+00   -1.0471219257E+00   -1.0443879216E+00
   -1.0416681571E+00   -1.0389625212E+00   -1.0362709042E+00   -1.0335931974E+00
   -1.0309292932E+00   -1.0282790852E+00   -1.0256424680E+00   -1.0230193373E+00
   -1.0204095899E+00   -1.0178131238E+00   -1.0152298376E+00   -1.0126596314E+00
   -1.0101024061E+00   -1.0075580634E+00   -1.0050265065E+00   -1.0025076390E+00
   -1.0000013659E+00   -9.9750759297E-01   -9.9502622683E-01   -9.9255717517E-01
   -9.9010034655E-01   -9.8765565041E-01   -9.8522299712E-01   -9.8280229791E-01
   -9.8039346488E-01   -9.7799641098E-01   -9.7561105004E-01   -9.7323729670E-01
   -9.7087506644E-01   -9.6852427556E-01   -9.6618484116E-01   -9.6385668115E-01
   -9.6153971422E-01   -9.5923385985E-01   -9.5693903828E-01   -9.5465517052E-01
   -9.5238217832E-01   -9.5011998419E-01   -9.4786851137E-01   -9.4562768381E-01
   -9.4339742620E-01   -9.4117766393E-01   -9.3896832308E-01   -9.3676933043E-01
   -9.3458061346E-01   -9.3240210030E-01   -9.3023371977E-01   -9.2807540133E-01
   -9.2592707511E-01   -9.2378867188E-01   -9.2166012305E-01   -9.1954136065E-01
   -9.1743231736E-01   -9.1533292644E-01   -9.1324312178E-01   -9.1116283788E-01
   -9.0909200982E-01   -9.0703057328E-01   -9.0497846451E-01   -9.0293562034E-01
   -9.0090197818E-01   -8.9887747599E-01   -8.9686205228E-01   -8.9485564614E-01
   -8.9285819718E-01   -8.9086964554E-01   -8.8888993191E-01   -8.8691899750E-01
   -8.8495678405E-01   -8.8300323380E-01   -8.8105828950E-01   -8.7912189441E-01
   -8.7719399229E-01   -8.7527452738E-01   -8.7336344442E-01   -8.7146068862E-01
   -8.6956620568E-01   -8.6767994175E-01   -8.6580184348E-01   -8.6393185795E-01
   -8.6206993270E-01   -8.6021601574E-01   -8.5837005551E-01   -8.5653200090E-01
   -8.5470180122E-01   -8.5287940624E-01   -8.5106476613E-01   -8.4925783151E-01
   -8.4745855340E-01   -8.4566688323E-01   -8.4388277286E-01   -8.4210617453E-01
   -8.4033704091E-01   -8.3857532505E-01   -8.3682098038E-01   -8.3507396075E-01
   -8.3333422037E-01   -8.3160171385E-01   -8.2987639615E-01   -8.2815822264E-01
   -8.2644714901E-01   -8.2474313137E-01   -8.2304612615E-01   -8.2135609015E-01
   -8.1967298054E-01   -8.1799675482E-01   -8.1632737084E-01   -8.1466478679E-01
   -8.1300896123E-01   -8.1135985301E-01   -8.0971742135E-01   -8.0808162579E-01
   -8.0645242618E-01   -8.0482978270E-01   -8.0321365588E-01   -8.0160400652E-01
   -8.0000079576E-01   -7.9840398505E-01   -7.9681353615E-01   -7.9522941110E-01
   -7.9365157226E-01   -7.9207998230E-01   -7.9051460416E-01   -7.8895540109E-01
   -7.8740233662E-01   -7.8585537456E-01   -7.8431447903E-01   -7.8277961441E-01
   -7.8125074536E-01   -7.7972783681E-01   -7.7821085399E-01   -7.7669976236E-01
   -7.7519452769E-01   -7.7369511598E-01   -7.7220149351E-01   -7.7071362681E-01
   -7.6923148268E-01   -7.6775502817E-01   -7.6628423059E-01   -7.6481905747E-01
   -7.6335947662E-01   -7.6190545608E-01   -7.6045696414E-01   -7.5901396934E-01
   -7.5757644042E-01   -7.5614434641E-01   -7.5471765653E-01   -7.5329634025E-01
   -7.5188036727E-01   -7.5046970751E-01   -7.4906433113E-01   -7.4766420850E-01
   -7.4626931022E-01   -7.4487960709E-01   -7.4349507014E-01   -7.4211567064E-01
   -7.4074138002E-01   -7.3937216997E-01   -7.3800801236E-01   -7.3664887927E-01
   -7.3529474301E-01   -7.3394557605E-01   -7.3260135111E-01   -7.3126204107E-01
   -7.2992761903E-01   -7.2859805828E-01   -7.2727333230E-01   -7.2595341476E-01
   -7.2463827955E-01   -7.2332790070E-01   -7.2202225247E-01   -7.2072130929E-01
   -7.1942504576E-01   -7.1813343669E-01   -7.1684645704E-01   -7.1556408198E-01
   -7.1428628683E-01   -7.1301304711E-01   -7.1174433850E-01   -7.1048013685E-01
   -7.0922041820E-01   -7.0796515872E-01   -7.0671433481E-01   -7.0546792297E-01
   -7.0422589991E-01   -7.0298824250E-01   -7.0175492775E-01   -7.0052593284E-01
   -6.9930123513E-01   -6.9808081211E-01   -6.9686464144E-01   -6.9565270093E-01
   -6.9444496856E-01   -6.9324142244E-01   -6.9204204085E-01   -6.9084680220E-01
   -6.8965568507E-01   -6.8846866818E-01   -6.8728573039E-01   -6.8610685072E-01
   -6.8493200830E-01   -6.8376118245E-01   -6.8259435260E-01   -6.8143149833E-01
   -6.8027259934E-01   -6.7911763551E-01   -6.7796658681E-01   -6.7681943338E-01
   -6.7567615547E-01   -6.7453673348E-01   -6.7340114793E-01   -6.7226937949E-01
   -6.7114140893E-01   -6.7001721717E-01   -6.6889678526E-01   -6.6778009436E-01
   -6.6666712577E-01   -6.6555786091E-01   -6.6445228132E-01   -6.6335036867E-01
   -6.6225210474E-01   -6.6115747145E-01   -6.6006645081E-01   -6.5897902497E-01
   -6.5789517620E-01   -6.5681488687E-01   -6.5573813948E-01   -6.5466491664E-01
   -6.5359520107E-01   -6.5252897561E-01   -6.5146622320E-01   -6.5040692690E-01
   -6.4935106988E-01   -6.4829863542E-01   -6.4724960691E-01   -6.4620396783E-01
   -6.4516170178E-01   -6.4412279248E-01   -6.4308722372E-01   -6.4205497944E-01
   -6.4102604363E-01   -6.4000040043E-01   -6.3897803405E-01   -6.3795892881E-01
   -6.3694306913E-01   -6.3593043954E-01   -6.3492102466E-01   -6.3391480920E-01
   -6.3291177796E-01   -6.3191191587E-01   -6.3091520793E-01   -6.2992163923E-01