<UPF version="2.0.1">
  <PP_INFO>

 This pseudopotential file has been produced using the code
 ONCVPSP  (Optimized Norm-Conservinng Vanderbilt PSeudopotential)
 fully-relativistic version 3.3.1 12/12/2017 by D. R. Hamann
 The code is available through a link at URL www.mat-simresearch.com.
 Documentation with the package provides a full discription of the
 input data below.


 While it is not required under the terms of the GNU GPL, it is
 suggested that you cite D. R. Hamann, Phys. Rev. B 88, 085117 (2013)
 in any publication using these pseudopotentials.

    <PP_INPUTFILE>
# ATOM AND REFERENCE CONFIGURATION
# atsym  z   nc   nv     iexc    psfile
  Ne 10.00    1    2       3      upf
#
#   n    l    f        energy (Ha)
    1    0    2.00
    2    0    2.00
    2    1    6.00
#
# PSEUDOPOTENTIAL AND OPTIMIZATION
# lmax
    1
#
#   l,   rc,     ep,   ncon, nbas, qcut
    0   2.61642  -1.32703    5    8   7.96858
    1   2.63783  -0.49597    5    8   6.60628
#
# LOCAL POTENTIAL
# lloc, lpopt,  rc(5),   dvloc0
    4    5   2.61477      0.00000
#
# VANDERBILT-KLEINMAN-BYLANDER PROJECTORs
# l, nproj, debl
    0    2   1.54861
    1    2   1.10873
#
# MODEL CORE CHARGE
# icmod, fcfact, rcfact
    0   0.00000   0.00000
#
# LOG DERIVATIVE ANALYSIS
# epsh1, epsh2, depsh
   -5.00    3.00    0.02
#
# OUTPUT GRID
# rlmax, drl
    6.00    0.01
#
# TEST CONFIGURATIONS
# ncnf
    0
# nvcnf
#   n    l    f
    </PP_INPUTFILE>
  </PP_INFO>
  <!--                               -->
  <!-- END OF HUMAN READABLE SECTION -->
  <!--                               -->
    <PP_HEADER
       generated="Generated using ONCVPSP code by D. R. Hamann"
       author="anonymous"
       date="220414"
       comment=""
       element="Ne"
       pseudo_type="NC"
       relativistic="full"
       is_ultrasoft="F"
       is_paw="F"
       is_coulomb="F"
       has_so="T"
       has_wfc="F"
       has_gipaw="F"
       core_correction="F"
       functional="PZ"
       z_valence="    8.00"
       total_psenergy="  -6.09074138973E+01"
       rho_cutoff="   7.49000000000E+00"
       l_max="1"
       l_local="-1"
       mesh_size="   750"
       number_of_wfc="3"
       number_of_proj="6"/>
 <PP_MESH>
   <PP_R type="real"  size=" 750" columns="8">
    0.0000    0.0100    0.0200    0.0300    0.0400    0.0500    0.0600    0.0700
    0.0800    0.0900    0.1000    0.1100    0.1200    0.1300    0.1400    0.1500
    0.1600    0.1700    0.1800    0.1900    0.2000    0.2100    0.2200    0.2300
    0.2400    0.2500    0.2600    0.2700    0.2800    0.2900    0.3000    0.3100
    0.3200    0.3300    0.3400    0.3500    0.3600    0.3700    0.3800    0.3900
    0.4000    0.4100    0.4200    0.4300    0.4400    0.4500    0.4600    0.4700
    0.4800    0.4900    0.5000    0.5100    0.5200    0.5300    0.5400    0.5500
    0.5600    0.5700    0.5800    0.5900    0.6000    0.6100    0.6200    0.6300
    0.6400    0.6500    0.6600    0.6700    0.6800    0.6900    0.7000    0.7100
    0.7200    0.7300    0.7400    0.7500    0.7600    0.7700    0.7800    0.7900
    0.8000    0.8100    0.8200    0.8300    0.8400    0.8500    0.8600    0.8700
    0.8800    0.8900    0.9000    0.9100    0.9200    0.9300    0.9400    0.9500
    0.9600    0.9700    0.9800    0.9900    1.0000    1.0100    1.0200    1.0300
    1.0400    1.0500    1.0600    1.0700    1.0800    1.0900    1.1000    1.1100
    1.1200    1.1300    1.1400    1.1500    1.1600    1.1700    1.1800    1.1900
    1.2000    1.2100    1.2200    1.2300    1.2400    1.2500    1.2600    1.2700
    1.2800    1.2900    1.3000    1.3100    1.3200    1.3300    1.3400    1.3500
    1.3600    1.3700    1.3800    1.3900    1.4000    1.4100    1.4200    1.4300
    1.4400    1.4500    1.4600    1.4700    1.4800    1.4900    1.5000    1.5100
    1.5200    1.5300    1.5400    1.5500    1.5600    1.5700    1.5800    1.5900
    1.6000    1.6100    1.6200    1.6300    1.6400    1.6500    1.6600    1.6700
    1.6800    1.6900    1.7000    1.7100    1.7200    1.7300    1.7400    1.7500
    1.7600    1.7700    1.7800    1.7900    1.8000    1.8100    1.8200    1.8300
    1.8400    1.8500    1.8600    1.8700    1.8800    1.8900    1.9000    1.9100
    1.9200    1.9300    1.9400    1.9500    1.9600    1.9700    1.9800    1.9900
    2.0000    2.0100    2.0200    2.0300    2.0400    2.0500    2.0600    2.0700
    2.0800    2.0900    2.1000    2.1100    2.1200    2.1300    2.1400    2.1500
    2.1600    2.1700    2.1800    2.1900    2.2000    2.2100    2.2200    2.2300
    2.2400    2.2500    2.2600    2.2700    2.2800    2.2900    2.3000    2.3100
    2.3200    2.3300    2.3400    2.3500    2.3600    2.3700    2.3800    2.3900
    2.4000    2.4100    2.4200    2.4300    2.4400    2.4500    2.4600    2.4700
    2.4800    2.4900    2.5000    2.5100    2.5200    2.5300    2.5400    2.5500
    2.5600    2.5700    2.5800    2.5900    2.6000    2.6100    2.6200    2.6300
    2.6400    2.6500    2.6600    2.6700    2.6800    2.6900    2.7000    2.7100
    2.7200    2.7300    2.7400    2.7500    2.7600    2.7700    2.7800    2.7900
    2.8000    2.8100    2.8200    2.8300    2.8400    2.8500    2.8600    2.8700
    2.8800    2.8900    2.9000    2.9100    2.9200    2.9300    2.9400    2.9500
    2.9600    2.9700    2.9800    2.9900    3.0000    3.0100    3.0200    3.0300
    3.0400    3.0500    3.0600    3.0700    3.0800    3.0900    3.1000    3.1100
    3.1200    3.1300    3.1400    3.1500    3.1600    3.1700    3.1800    3.1900
    3.2000    3.2100    3.2200    3.2300    3.2400    3.2500    3.2600    3.2700
    3.2800    3.2900    3.3000    3.3100    3.3200    3.3300    3.3400    3.3500
    3.3600    3.3700    3.3800    3.3900    3.4000    3.4100    3.4200    3.4300
    3.4400    3.4500    3.4600    3.4700    3.4800    3.4900    3.5000    3.5100
    3.5200    3.5300    3.5400    3.5500    3.5600    3.5700    3.5800    3.5900
    3.6000    3.6100    3.6200    3.6300    3.6400    3.6500    3.6600    3.6700
    3.6800    3.6900    3.7000    3.7100    3.7200    3.7300    3.7400    3.7500
    3.7600    3.7700    3.7800    3.7900    3.8000    3.8100    3.8200    3.8300
    3.8400    3.8500    3.8600    3.8700    3.8800    3.8900    3.9000    3.9100
    3.9200    3.9300    3.9400    3.9500    3.9600    3.9700    3.9800    3.9900
    4.0000    4.0100    4.0200    4.0300    4.0400    4.0500    4.0600    4.0700
    4.0800    4.0900    4.1000    4.1100    4.1200    4.1300    4.1400    4.1500
    4.1600    4.1700    4.1800    4.1900    4.2000    4.2100    4.2200    4.2300
    4.2400    4.2500    4.2600    4.2700    4.2800    4.2900    4.3000    4.3100
    4.3200    4.3300    4.3400    4.3500    4.3600    4.3700    4.3800    4.3900
    4.4000    4.4100    4.4200    4.4300    4.4400    4.4500    4.4600    4.4700
    4.4800    4.4900    4.5000    4.5100    4.5200    4.5300    4.5400    4.5500
    4.5600    4.5700    4.5800    4.5900    4.6000    4.6100    4.6200    4.6300
    4.6400    4.6500    4.6600    4.6700    4.6800    4.6900    4.7000    4.7100
    4.7200    4.7300    4.7400    4.7500    4.7600    4.7700    4.7800    4.7900
    4.8000    4.8100    4.8200    4.8300    4.8400    4.8500    4.8600    4.8700
    4.8800    4.8900    4.9000    4.9100    4.9200    4.9300    4.9400    4.9500
    4.9600    4.9700    4.9800    4.9900    5.0000    5.0100    5.0200    5.0300
    5.0400    5.0500    5.0600    5.0700    5.0800    5.0900    5.1000    5.1100
    5.1200    5.1300    5.1400    5.1500    5.1600    5.1700    5.1800    5.1900
    5.2000    5.2100    5.2200    5.2300    5.2400    5.2500    5.2600    5.2700
    5.2800    5.2900    5.3000    5.3100    5.3200    5.3300    5.3400    5.3500
    5.3600    5.3700    5.3800    5.3900    5.4000    5.4100    5.4200    5.4300
    5.4400    5.4500    5.4600    5.4700    5.4800    5.4900    5.5000    5.5100
    5.5200    5.5300    5.5400    5.5500    5.5600    5.5700    5.5800    5.5900
    5.6000    5.6100    5.6200    5.6300    5.6400    5.6500    5.6600    5.6700
    5.6800    5.6900    5.7000    5.7100    5.7200    5.7300    5.7400    5.7500
    5.7600    5.7700    5.7800    5.7900    5.8000    5.8100    5.8200    5.8300
    5.8400    5.8500    5.8600    5.8700    5.8800    5.8900    5.9000    5.9100
    5.9200    5.9300    5.9400    5.9500    5.9600    5.9700    5.9800    5.9900
    6.0000    6.0100    6.0200    6.0300    6.0400    6.0500    6.0600    6.0700
    6.0800    6.0900    6.1000    6.1100    6.1200    6.1300    6.1400    6.1500
    6.1600    6.1700    6.1800    6.1900    6.2000    6.2100    6.2200    6.2300
    6.2400    6.2500    6.2600    6.2700    6.2800    6.2900    6.3000    6.3100
    6.3200    6.3300    6.3400    6.3500    6.3600    6.3700    6.3800    6.3900
    6.4000    6.4100    6.4200    6.4300    6.4400    6.4500    6.4600    6.4700
    6.4800    6.4900    6.5000    6.5100    6.5200    6.5300    6.5400    6.5500
    6.5600    6.5700    6.5800    6.5900    6.6000    6.6100    6.6200    6.6300
    6.6400    6.6500    6.6600    6.6700    6.6800    6.6900    6.7000    6.7100
    6.7200    6.7300    6.7400    6.7500    6.7600    6.7700    6.7800    6.7900
    6.8000    6.8100    6.8200    6.8300    6.8400    6.8500    6.8600    6.8700
    6.8800    6.8900    6.9000    6.9100    6.9200    6.9300    6.9400    6.9500
    6.9600    6.9700    6.9800    6.9900    7.0000    7.0100    7.0200    7.0300
    7.0400    7.0500    7.0600    7.0700    7.0800    7.0900    7.1000    7.1100
    7.1200    7.1300    7.1400    7.1500    7.1600    7.1700    7.1800    7.1900
    7.2000    7.2100    7.2200    7.2300    7.2400    7.2500    7.2600    7.2700
    7.2800    7.2900    7.3000    7.3100    7.3200    7.3300    7.3400    7.3500
    7.3600    7.3700    7.3800    7.3900    7.4000    7.4100    7.4200    7.4300
    7.4400    7.4500    7.4600    7.4700    7.4800    7.4900
   </PP_R>
   <PP_RAB type="real"  size=" 750" columns="8">
    0.0100    0.0100    0.0100    0.0100    0.0100    0.0100    0.0100    0.0100
    0.0100    0.0100    0.0100    0.0100    0.0100    0.0100    0.0100    0.0100
    0.0100    0.0100    0.0100    0.0100    0.0100    0.0100    0.0100    0.0100
    0.0100    0.0100    0.0100    0.0100    0.0100    0.0100    0.0100    0.0100
    0.0100    0.0100    0.0100    0.0100    0.0100    0.0100    0.0100    0.0100
    0.0100    0.0100    0.0100    0.0100    0.0100    0.0100    0.0100    0.0100
    0.0100    0.0100    0.0100    0.0100    0.0100    0.0100    0.0100    0.0100
    0.0100    0.0100    0.0100    0.0100    0.0100    0.0100    0.0100    0.0100
    0.0100    0.0100    0.0100    0.0100    0.0100    0.0100    0.0100    0.0100
    0.0100    0.0100    0.0100    0.0100    0.0100    0.0100    0.0100    0.0100
    0.0100    0.0100    0.0100    0.0100    0.0100    0.0100    0.0100    0.0100
    0.0100    0.0100    0.0100    0.0100    0.0100    0.0100    0.0100    0.0100
    0.0100    0.0100    0.0100    0.0100    0.0100    0.0100    0.0100    0.0100
    0.0100    0.0100    0.0100    0.0100    0.0100    0.0100    0.0100    0.0100
    0.0100    0.0100    0.0100    0.0100    0.0100    0.0100    0.0100    0.0100
    0.0100    0.0100    0.0100    0.0100    0.0100    0.0100    0.0100    0.0100
    0.0100    0.0100    0.0100    0.0100    0.0100    0.0100    0.0100    0.0100
    0.0100    0.0100    0.0100    0.0100    0.0100    0.0100    0.0100    0.0100
    0.0100    0.0100    0.0100    0.0100    0.0100    0.0100    0.0100    0.0100
    0.0100    0.0100    0.0100    0.0100    0.0100    0.0100    0.0100    0.0100
    0.0100    0.0100    0.0100    0.0100    0.0100    0.0100    0.0100    0.0100
    0.0100    0.0100    0.0100    0.0100    0.0100    0.0100    0.0100    0.0100
    0.0100    0.0100    0.0100    0.0100    0.0100    0.0100    0.0100    0.0100
    0.0100    0.0100    0.0100    0.0100    0.0100    0.0100    0.0100    0.0100
    0.0100    0.0100    0.0100    0.0100    0.0100    0.0100    0.0100    0.0100
    0.0100    0.0100    0.0100    0.0100    0.0100    0.0100    0.0100    0.0100
    0.0100    0.0100    0.0100    0.0100    0.0100    0.0100    0.0100    0.0100
    0.0100    0.0100    0.0100    0.0100    0.0100    0.0100    0.0100    0.0100
    0.0100    0.0100    0.0100    0.0100    0.0100    0.0100    0.0100    0.0100
    0.0100    0.0100    0.0100    0.0100    0.0100    0.0100    0.0100    0.0100
    0.0100    0.0100    0.0100    0.0100    0.0100    0.0100    0.0100    0.0100
    0.0100    0.0100    0.0100    0.0100    0.0100    0.0100    0.0100    0.0100
    0.0100    0.0100    0.0100    0.0100    0.0100    0.0100    0.0100    0.0100
    0.0100    0.0100    0.0100    0.0100    0.0100    0.0100    0.0100    0.0100
    0.0100    0.0100    0.0100    0.0100    0.0100    0.0100    0.0100    0.0100
    0.0100    0.0100    0.0100    0.0100    0.0100    0.0100    0.0100    0.0100
    0.0100    0.0100    0.0100    0.0100    0.0100    0.0100    0.0100    0.0100
    0.0100    0.0100    0.0100    0.0100    0.0100    0.0100    0.0100    0.0100
    0.0100    0.0100    0.0100    0.0100    0.0100    0.0100    0.0100    0.0100
    0.0100    0.0100    0.0100    0.0100    0.0100    0.0100    0.0100    0.0100
    0.0100    0.0100    0.0100    0.0100    0.0100    0.0100    0.0100    0.0100
    0.0100    0.0100    0.0100    0.0100    0.0100    0.0100    0.0100    0.0100
    0.0100    0.0100    0.0100    0.0100    0.0100    0.0100    0.0100    0.0100
    0.0100    0.0100    0.0100    0.0100    0.0100    0.0100    0.0100    0.0100
    0.0100    0.0100    0.0100    0.0100    0.0100    0.0100    0.0100    0.0100
    0.0100    0.0100    0.0100    0.0100    0.0100    0.0100    0.0100    0.0100
    0.0100    0.0100    0.0100    0.0100    0.0100    0.0100    0.0100    0.0100
    0.0100    0.0100    0.0100    0.0100    0.0100    0.0100    0.0100    0.0100
    0.0100    0.0100    0.0100    0.0100    0.0100    0.0100    0.0100    0.0100
    0.0100    0.0100    0.0100    0.0100    0.0100    0.0100    0.0100    0.0100
    0.0100    0.0100    0.0100    0.0100    0.0100    0.0100    0.0100    0.0100
    0.0100    0.0100    0.0100    0.0100    0.0100    0.0100    0.0100    0.0100
    0.0100    0.0100    0.0100    0.0100    0.0100    0.0100    0.0100    0.0100
    0.0100    0.0100    0.0100    0.0100    0.0100    0.0100    0.0100    0.0100
    0.0100    0.0100    0.0100    0.0100    0.0100    0.0100    0.0100    0.0100
    0.0100    0.0100    0.0100    0.0100    0.0100    0.0100    0.0100    0.0100
    0.0100    0.0100    0.0100    0.0100    0.0100    0.0100    0.0100    0.0100
    0.0100    0.0100    0.0100    0.0100    0.0100    0.0100    0.0100    0.0100
    0.0100    0.0100    0.0100    0.0100    0.0100    0.0100    0.0100    0.0100
    0.0100    0.0100    0.0100    0.0100    0.0100    0.0100    0.0100    0.0100
    0.0100    0.0100    0.0100    0.0100    0.0100    0.0100    0.0100    0.0100
    0.0100    0.0100    0.0100    0.0100    0.0100    0.0100    0.0100    0.0100
    0.0100    0.0100    0.0100    0.0100    0.0100    0.0100    0.0100    0.0100
    0.0100    0.0100    0.0100    0.0100    0.0100    0.0100    0.0100    0.0100
    0.0100    0.0100    0.0100    0.0100    0.0100    0.0100    0.0100    0.0100
    0.0100    0.0100    0.0100    0.0100    0.0100    0.0100    0.0100    0.0100
    0.0100    0.0100    0.0100    0.0100    0.0100    0.0100    0.0100    0.0100
    0.0100    0.0100    0.0100    0.0100    0.0100    0.0100    0.0100    0.0100
    0.0100    0.0100    0.0100    0.0100    0.0100    0.0100    0.0100    0.0100
    0.0100    0.0100    0.0100    0.0100    0.0100    0.0100    0.0100    0.0100
    0.0100    0.0100    0.0100    0.0100    0.0100    0.0100    0.0100    0.0100
    0.0100    0.0100    0.0100    0.0100    0.0100    0.0100    0.0100    0.0100
    0.0100    0.0100    0.0100    0.0100    0.0100    0.0100    0.0100    0.0100
    0.0100    0.0100    0.0100    0.0100    0.0100    0.0100    0.0100    0.0100
    0.0100    0.0100    0.0100    0.0100    0.0100    0.0100    0.0100    0.0100
    0.0100    0.0100    0.0100    0.0100    0.0100    0.0100    0.0100    0.0100
    0.0100    0.0100    0.0100    0.0100    0.0100    0.0100    0.0100    0.0100
    0.0100    0.0100    0.0100    0.0100    0.0100    0.0100    0.0100    0.0100
    0.0100    0.0100    0.0100    0.0100    0.0100    0.0100    0.0100    0.0100
    0.0100    0.0100    0.0100    0.0100    0.0100    0.0100    0.0100    0.0100
    0.0100    0.0100    0.0100    0.0100    0.0100    0.0100    0.0100    0.0100
    0.0100    0.0100    0.0100    0.0100    0.0100    0.0100    0.0100    0.0100
    0.0100    0.0100    0.0100    0.0100    0.0100    0.0100    0.0100    0.0100
    0.0100    0.0100    0.0100    0.0100    0.0100    0.0100    0.0100    0.0100
    0.0100    0.0100    0.0100    0.0100    0.0100    0.0100    0.0100    0.0100
    0.0100    0.0100    0.0100    0.0100    0.0100    0.0100    0.0100    0.0100
    0.0100    0.0100    0.0100    0.0100    0.0100    0.0100    0.0100    0.0100
    0.0100    0.0100    0.0100    0.0100    0.0100    0.0100    0.0100    0.0100
    0.0100    0.0100    0.0100    0.0100    0.0100    0.0100    0.0100    0.0100
    0.0100    0.0100    0.0100    0.0100    0.0100    0.0100    0.0100    0.0100
    0.0100    0.0100    0.0100    0.0100    0.0100    0.0100    0.0100    0.0100
    0.0100    0.0100    0.0100    0.0100    0.0100    0.0100    0.0100    0.0100
    0.0100    0.0100    0.0100    0.0100    0.0100    0.0100    0.0100    0.0100
    0.0100    0.0100    0.0100    0.0100    0.0100    0.0100
   </PP_RAB>
 </PP_MESH>
  <PP_LOCAL type="real"  size=" 750" columns="4">
   -1.7581296215E+01   -1.7580616972E+01   -1.7578581314E+01   -1.7575195226E+01
   -1.7570468560E+01   -1.7564414850E+01   -1.7557051044E+01   -1.7548397196E+01
   -1.7538476098E+01   -1.7527312893E+01   -1.7514934654E+01   -1.7501369957E+01
   -1.7486648456E+01   -1.7470800473E+01   -1.7453856597E+01   -1.7435847327E+01
   -1.7416802734E+01   -1.7396752165E+01   -1.7375723986E+01   -1.7353745370E+01
   -1.7330842109E+01   -1.7307038485E+01   -1.7282357161E+01   -1.7256819111E+01
   -1.7230443586E+01   -1.7203248097E+01   -1.7175248433E+01   -1.7146458693E+01
   -1.7116891339E+01   -1.7086557265E+01   -1.7055465877E+01   -1.7023625180E+01
   -1.6991041885E+01   -1.6957721502E+01   -1.6923668458E+01   -1.6888886202E+01
   -1.6853377321E+01   -1.6817143647E+01   -1.6780186372E+01   -1.6742506157E+01
   -1.6704103234E+01   -1.6664977517E+01   -1.6625128693E+01   -1.6584556327E+01
   -1.6543259943E+01   -1.6501239121E+01   -1.6458493571E+01   -1.6415023213E+01
   -1.6370828249E+01   -1.6325909230E+01   -1.6280267115E+01   -1.6233903331E+01
   -1.6186819820E+01   -1.6139019089E+01   -1.6090504248E+01   -1.6041279048E+01
   -1.5991347911E+01   -1.5940715957E+01   -1.5889389025E+01   -1.5837373692E+01
   -1.5784677283E+01   -1.5731307881E+01   -1.5677274333E+01   -1.5622586246E+01
   -1.5567253991E+01   -1.5511288689E+01   -1.5454702203E+01   -1.5397507128E+01
   -1.5339716770E+01   -1.5281345127E+01   -1.5222406870E+01   -1.5162917316E+01
   -1.5102892400E+01   -1.5042348650E+01   -1.4981303151E+01   -1.4919773518E+01
   -1.4857777855E+01   -1.4795334725E+01   -1.4732463113E+01   -1.4669182383E+01
   -1.4605512247E+01   -1.4541472720E+01   -1.4477084082E+01   -1.4412366841E+01
   -1.4347341687E+01   -1.4282029459E+01   -1.4216451100E+01   -1.4150627620E+01
   -1.4084580056E+01   -1.4018329435E+01   -1.3951896733E+01   -1.3885302843E+01
   -1.3818568535E+01   -1.3751714423E+01   -1.3684760930E+01   -1.3617728258E+01
   -1.3550636353E+01   -1.3483504879E+01   -1.3416353187E+01   -1.3349200290E+01
   -1.3282064835E+01   -1.3214965081E+01   -1.3147918879E+01   -1.3080943646E+01
   -1.3014056350E+01   -1.2947273494E+01   -1.2880611096E+01   -1.2814084677E+01
   -1.2747709253E+01   -1.2681499317E+01   -1.2615468834E+01   -1.2549631237E+01
   -1.2483999414E+01   -1.2418585708E+01   -1.2353401916E+01   -1.2288459282E+01
   -1.2223768504E+01   -1.2159339730E+01   -1.2095182564E+01   -1.2031306067E+01
   -1.1967718768E+01   -1.1904428663E+01   -1.1841443229E+01   -1.1778769427E+01
   -1.1716413717E+01   -1.1654382063E+01   -1.1592679948E+01   -1.1531312572E+01
   -1.1470284001E+01   -1.1409596416E+01   -1.1349265858E+01   -1.1289278023E+01
   -1.1229580869E+01   -1.1170216271E+01   -1.1111238777E+01   -1.1052626826E+01
   -1.0994371993E+01   -1.0936481798E+01   -1.0878956257E+01   -1.0821795647E+01
   -1.0765000316E+01   -1.0708570261E+01   -1.0652505236E+01   -1.0596804763E+01
   -1.0541468151E+01   -1.0486494511E+01   -1.0431882768E+01   -1.0377631680E+01
   -1.0323739850E+01   -1.0270205738E+01   -1.0217027680E+01   -1.0164203897E+01
   -1.0111732508E+01   -1.0059611547E+01   -1.0007838967E+01   -9.9564126577E+00
   -9.9053304553E+00   -9.8545901509E+00   -9.8041895017E+00   -9.7541262403E+00
   -9.7043980834E+00   -9.6550027401E+00   -9.6059379196E+00   -9.5572013383E+00
   -9.5087907268E+00   -9.4607038358E+00   -9.4129384418E+00   -9.3654923519E+00
   -9.3183634091E+00   -9.2715494955E+00   -9.2250485365E+00   -9.1788585038E+00
   -9.1329774178E+00   -9.0874033500E+00   -9.0421344248E+00   -8.9971688205E+00
   -8.9525047707E+00   -8.9081405644E+00   -8.8640745464E+00   -8.8203051171E+00
   -8.7768307318E+00   -8.7336499002E+00   -8.6907611850E+00   -8.6481632006E+00
   -8.6058546114E+00   -8.5638341302E+00   -8.5221005157E+00   -8.4806525706E+00
   -8.4394891392E+00   -8.3986091043E+00   -8.3580113853E+00   -8.3176949346E+00
   -8.2776587353E+00   -8.2379017981E+00   -8.1984231582E+00   -8.1592218722E+00
   -8.1202970153E+00   -8.0816476780E+00   -8.0432729635E+00   -8.0051719841E+00
   -7.9673438586E+00   -7.9297877097E+00   -7.8925026604E+00   -7.8554878321E+00
   -7.8187423414E+00   -7.7822652980E+00   -7.7460558016E+00   -7.7101129404E+00
   -7.6744357884E+00   -7.6390234033E+00   -7.6038748250E+00   -7.5689890732E+00
   -7.5343651463E+00   -7.5000020196E+00   -7.4658986437E+00   -7.4320539439E+00
   -7.3984668185E+00   -7.3651361381E+00   -7.3320607447E+00   -7.2992394510E+00
   -7.2666710400E+00   -7.2343542645E+00   -7.2022878465E+00   -7.1704704776E+00
   -7.1389008184E+00   -7.1075774988E+00   -7.0764991181E+00   -7.0456642453E+00
   -7.0150714192E+00   -6.9847191492E+00   -6.9546059156E+00   -6.9247301702E+00
   -6.8950903368E+00   -6.8656848124E+00   -6.8365119673E+00   -6.8075701466E+00
   -6.7788576704E+00   -6.7503728352E+00   -6.7221139146E+00   -6.6940791605E+00
   -6.6662668035E+00   -6.6386750545E+00   -6.6113021053E+00   -6.5841461299E+00
   -6.5572052850E+00   -6.5304777114E+00   -6.5039615347E+00   -6.4776548662E+00
   -6.4515558039E+00   -6.4256624335E+00   -6.3999728287E+00   -6.3744850524E+00
   -6.3491971573E+00   -6.3241071865E+00   -6.2992131740E+00   -6.2745131458E+00
   -6.2500051197E+00   -6.2256871042E+00   -6.2015571055E+00   -6.1776131200E+00
   -6.1538531406E+00   -6.1302751378E+00   -6.1068770855E+00   -6.0836569614E+00
   -6.0606127561E+00   -6.0377424777E+00   -6.0150441532E+00   -5.9925158508E+00
   -5.9701556682E+00   -5.9479617334E+00   -5.9259321995E+00   -5.9040652453E+00
   -5.8823590781E+00   -5.8608119313E+00   -5.8394220636E+00   -5.8181877591E+00
   -5.7971073269E+00   -5.7761791005E+00   -5.7554014374E+00   -5.7347727187E+00
   -5.7142913484E+00   -5.6939557535E+00   -5.6737643832E+00   -5.6537157085E+00
   -5.6338082221E+00   -5.6140404378E+00   -5.5944108903E+00   -5.5749181344E+00
   -5.5555607453E+00   -5.5363373178E+00   -5.5172464660E+00   -5.4982868233E+00
   -5.4794570415E+00   -5.4607557910E+00   -5.4421817603E+00   -5.4237336556E+00
   -5.4054102006E+00   -5.3872101362E+00   -5.3691322202E+00   -5.3511752271E+00
   -5.3333379476E+00   -5.3156191885E+00   -5.2980177726E+00   -5.2805325379E+00
   -5.2631623380E+00   -5.2459060413E+00   -5.2287625311E+00   -5.2117307054E+00
   -5.1948094762E+00   -5.1779977698E+00   -5.1612945262E+00   -5.1446986993E+00
   -5.1282092562E+00   -5.1118251772E+00   -5.0955454556E+00   -5.0793690976E+00
   -5.0632951218E+00   -5.0473225594E+00   -5.0314504536E+00   -5.0156778596E+00
   -5.0000038445E+00   -4.9844274871E+00   -4.9689478775E+00   -4.9535641171E+00
   -4.9382753183E+00   -4.9230806047E+00   -4.9079791104E+00   -4.8929699801E+00
   -4.8780523692E+00   -4.8632254429E+00   -4.8484883771E+00   -4.8338403571E+00
   -4.8192805784E+00   -4.8048082460E+00   -4.7904225744E+00   -4.7761227876E+00
   -4.7619081188E+00   -4.7477778101E+00   -4.7337311130E+00   -4.7197672873E+00
   -4.7058856020E+00   -4.6920853343E+00   -4.6783657701E+00   -4.6647262035E+00
   -4.6511659368E+00   -4.6376842805E+00   -4.6242805531E+00   -4.6109540806E+00
   -4.5977041973E+00   -4.5845302446E+00   -4.5714315718E+00   -4.5584075354E+00
   -4.5454574993E+00   -4.5325808347E+00   -4.5197769198E+00   -4.5070451397E+00
   -4.4943848865E+00   -4.4817955593E+00   -4.4692765636E+00   -4.4568273117E+00
   -4.4444472225E+00   -4.4321357211E+00   -4.4198922392E+00   -4.4077162145E+00
   -4.3956070912E+00   -4.3835643194E+00   -4.3715873552E+00   -4.3596756606E+00
   -4.3478287036E+00   -4.3360459579E+00   -4.3243269027E+00   -4.3126710232E+00
   -4.3010778097E+00   -4.2895467584E+00   -4.2780773705E+00   -4.2666691527E+00
   -4.2553216171E+00   -4.2440342807E+00   -4.2328066657E+00   -4.2216382994E+00
   -4.2105287141E+00   -4.1994774469E+00   -4.1884840398E+00   -4.1775480396E+00
   -4.1666689978E+00   -4.1558464706E+00   -4.1450800187E+00   -4.1343692075E+00
   -4.1237136068E+00   -4.1131127906E+00   -4.1025663377E+00   -4.0920738310E+00
   -4.0816348575E+00   -4.0712490086E+00   -4.0609158798E+00   -4.0506350707E+00
   -4.0404061849E+00   -4.0302288302E+00   -4.0201026180E+00   -4.0100271637E+00
   -4.0000020869E+00   -3.9900270104E+00   -3.9801015613E+00   -3.9702253701E+00
   -3.9603980709E+00   -3.9506193016E+00   -3.9408887037E+00   -3.9312059221E+00
   -3.9215706051E+00   -3.9119824047E+00   -3.9024409760E+00   -3.8929459776E+00
   -3.8834970715E+00   -3.8740939229E+00   -3.8647362002E+00   -3.8554235750E+00
   -3.8461557221E+00   -3.8369323194E+00   -3.8277530478E+00   -3.8186175914E+00
   -3.8095256372E+00   -3.8004768753E+00   -3.7914709985E+00   -3.7825077027E+00
   -3.7735866867E+00   -3.7647076520E+00   -3.7558703029E+00   -3.7470743466E+00
   -3.7383194930E+00   -3.7296054545E+00   -3.7209319465E+00   -3.7122986869E+00
   -3.7037053961E+00   -3.6951517971E+00   -3.6866376158E+00   -3.6781625801E+00
   -3.6697264208E+00   -3.6613288709E+00   -3.6529696661E+00   -3.6446485442E+00
   -3.6363652457E+00   -3.6281195131E+00   -3.6199110916E+00   -3.6117397285E+00
   -3.6036051733E+00   -3.5955071780E+00   -3.5874454966E+00   -3.5794198854E+00
   -3.5714301028E+00   -3.5634759095E+00   -3.5555570682E+00   -3.5476733438E+00
   -3.5398245031E+00   -3.5320103152E+00   -3.5242305510E+00   -3.5164849836E+00
   -3.5087733881E+00   -3.5010955413E+00   -3.4934512223E+00   -3.4858402119E+00
   -3.4782622929E+00   -3.4707172499E+00   -3.4632048695E+00   -3.4557249400E+00
   -3.4482772515E+00   -3.4408615962E+00   -3.4334777678E+00   -3.4261255617E+00
   -3.4188047754E+00   -3.4115152078E+00   -3.4042566597E+00   -3.3970289335E+00
   -3.3898318332E+00   -3.3826651647E+00   -3.3755287353E+00   -3.3684223541E+00
   -3.3613458316E+00   -3.3542989801E+00   -3.3472816134E+00   -3.3402935467E+00
   -3.3333345971E+00   -3.3264045828E+00   -3.3195033237E+00   -3.3126306414E+00
   -3.3057863585E+00   -3.2989702996E+00   -3.2921822902E+00   -3.2854221578E+00
   -3.2786897308E+00   -3.2719848393E+00   -3.2653073148E+00   -3.2586569900E+00
   -3.2520336990E+00   -3.2454372774E+00   -3.2388675620E+00   -3.2323243909E+00
   -3.2258076036E+00   -3.2193170408E+00   -3.2128525445E+00   -3.2064139581E+00
   -3.2000011260E+00   -3.1936138940E+00   -3.1872521093E+00   -3.1809156199E+00
   -3.1746042753E+00   -3.1683179262E+00   -3.1620564244E+00   -3.1558196227E+00
   -3.1496073754E+00   -3.1434195378E+00   -3.1372559662E+00   -3.1311165182E+00
   -3.1250010524E+00   -3.1189094286E+00   -3.1128415076E+00   -3.1067971515E+00
   -3.1007762230E+00   -3.0947785864E+00   -3.0888041067E+00   -3.0828526501E+00
   -3.0769240837E+00   -3.0710182757E+00   -3.0651350953E+00   -3.0592744128E+00
   -3.0534360994E+00   -3.0476200271E+00   -3.0418260692E+00   -3.0360540998E+00
   -3.0303039939E+00   -3.0245756276E+00   -3.0188688778E+00   -3.0131836223E+00
   -3.0075197400E+00   -3.0018771105E+00   -2.9962556146E+00   -2.9906551335E+00
   -2.9850755498E+00   -2.9795167467E+00   -2.9739786083E+00   -2.9684610196E+00
   -2.9629638665E+00   -2.9574870355E+00   -2.9520304143E+00   -2.9465938911E+00
   -2.9411773552E+00   -2.9357806965E+00   -2.9304038058E+00   -2.9250465747E+00
   -2.9197088955E+00   -2.9143906614E+00   -2.9090917664E+00   -2.9038121052E+00
   -2.8985515732E+00   -2.8933100666E+00   -2.8880874824E+00   -2.8828837184E+00
   -2.8776986730E+00   -2.8725322454E+00   -2.8673843354E+00   -2.8622548437E+00
   -2.8571436717E+00   -2.8520507213E+00   -2.8469758954E+00   -2.8419190972E+00
   -2.8368802310E+00   -2.8318592015E+00   -2.8268559141E+00   -2.8218702751E+00
   -2.8169021911E+00   -2.8119515697E+00   -2.8070183189E+00   -2.8021023474E+00
   -2.7972035647E+00   -2.7923218807E+00   -2.7874572061E+00   -2.7826094521E+00
   -2.7777785306E+00   -2.7729643540E+00   -2.7681668356E+00   -2.7633858889E+00
   -2.7586214282E+00   -2.7538733685E+00   -2.7491416251E+00   -2.7444261142E+00
   -2.7397267523E+00   -2.7350434566E+00   -2.7303761448E+00   -2.7257247354E+00
   -2.7210891470E+00   -2.7164692993E+00   -2.7118651120E+00   -2.7072765058E+00
   -2.7027034016E+00   -2.6981457211E+00   -2.6936033863E+00   -2.6890763199E+00
   -2.6845644450E+00   -2.6800676853E+00   -2.6755859650E+00   -2.6711192086E+00
   -2.6666673415E+00   -2.6622302893E+00   -2.6578079781E+00   -2.6534003347E+00
   -2.6490072861E+00   -2.6446287600E+00   -2.6402646845E+00   -2.6359149882E+00
   -2.6315796001E+00   -2.6272584497E+00   -2.6229514671E+00   -2.6186585827E+00