<UPF version="2.0.1">
  <PP_INFO>

 This pseudopotential file has been produced using the code
 ONCVPSP  (Optimized Norm-Conservinng Vanderbilt PSeudopotential)
 scalar-relativistic version 3.3.1 12/12/2017 by D. R. Hamann
 The code is available through a link at URL www.mat-simresearch.com.
 Documentation with the package provides a full discription of the
 input data below.


 While it is not required under the terms of the GNU GPL, it is
 suggested that you cite D. R. Hamann, Phys. Rev. B 88, 085117 (2013)
 in any publication using these pseudopotentials.

    <PP_INPUTFILE>
# ATOM AND REFERENCE CONFIGURATION
# atsym  z   nc   nv     iexc    psfile
  Ne 10.00    1    2       3      upf
#
#   n    l    f        energy (Ha)
    1    0    2.00
    2    0    2.00
    2    1    6.00
#
# PSEUDOPOTENTIAL AND OPTIMIZATION
# lmax
    1
#
#   l,   rc,      ep,       ncon, nbas, qcut
    0   2.61642  -1.32709    5    8   7.96858
    1   2.63783  -0.49729    5    8   6.60628
#
# LOCAL POTENTIAL
# lloc, lpopt,  rc(5),   dvloc0
    4    5   2.61477      0.00000
#
# VANDERBILT-KLEINMAN-BYLANDER PROJECTORs
# l, nproj, debl
    0    2   1.54861
    1    2   1.11000
#
# MODEL CORE CHARGE
# icmod, fcfact, rcfact
    0   0.00000   0.00000
#
# LOG DERIVATIVE ANALYSIS
# epsh1, epsh2, depsh
   -5.00    3.00    0.02
#
# OUTPUT GRID
# rlmax, drl
    6.00    0.01
#
# TEST CONFIGURATIONS
# ncnf
    0
# nvcnf
#   n    l    f
    </PP_INPUTFILE>
  </PP_INFO>
  <!--                               -->
  <!-- END OF HUMAN READABLE SECTION -->
  <!--                               -->
    <PP_HEADER
       generated="Generated using ONCVPSP code by D. R. Hamann"
       author="anonymous"
       date="220414"
       comment=""
       element="Ne"
       pseudo_type="NC"
       relativistic="scalar"
       is_ultrasoft="F"
       is_paw="F"
       is_coulomb="F"
       has_so="F"
       has_wfc="F"
       has_gipaw="F"
       core_correction="F"
       functional="PZ"
       z_valence="    8.00"
       total_psenergy="  -6.09098025324E+01"
       rho_cutoff="   7.49000000000E+00"
       l_max="1"
       l_local="-1"
       mesh_size="   750"
       number_of_wfc="2"
       number_of_proj="4"/>
 <PP_MESH>
   <PP_R type="real"  size=" 750" columns="8">
    0.0000    0.0100    0.0200    0.0300    0.0400    0.0500    0.0600    0.0700
    0.0800    0.0900    0.1000    0.1100    0.1200    0.1300    0.1400    0.1500
    0.1600    0.1700    0.1800    0.1900    0.2000    0.2100    0.2200    0.2300
    0.2400    0.2500    0.2600    0.2700    0.2800    0.2900    0.3000    0.3100
    0.3200    0.3300    0.3400    0.3500    0.3600    0.3700    0.3800    0.3900
    0.4000    0.4100    0.4200    0.4300    0.4400    0.4500    0.4600    0.4700
    0.4800    0.4900    0.5000    0.5100    0.5200    0.5300    0.5400    0.5500
    0.5600    0.5700    0.5800    0.5900    0.6000    0.6100    0.6200    0.6300
    0.6400    0.6500    0.6600    0.6700    0.6800    0.6900    0.7000    0.7100
    0.7200    0.7300    0.7400    0.7500    0.7600    0.7700    0.7800    0.7900
    0.8000    0.8100    0.8200    0.8300    0.8400    0.8500    0.8600    0.8700
    0.8800    0.8900    0.9000    0.9100    0.9200    0.9300    0.9400    0.9500
    0.9600    0.9700    0.9800    0.9900    1.0000    1.0100    1.0200    1.0300
    1.0400    1.0500    1.0600    1.0700    1.0800    1.0900    1.1000    1.1100
    1.1200    1.1300    1.1400    1.1500    1.1600    1.1700    1.1800    1.1900
    1.2000    1.2100    1.2200    1.2300    1.2400    1.2500    1.2600    1.2700
    1.2800    1.2900    1.3000    1.3100    1.3200    1.3300    1.3400    1.3500
    1.3600    1.3700    1.3800    1.3900    1.4000    1.4100    1.4200    1.4300
    1.4400    1.4500    1.4600    1.4700    1.4800    1.4900    1.5000    1.5100
    1.5200    1.5300    1.5400    1.5500    1.5600    1.5700    1.5800    1.5900
    1.6000    1.6100    1.6200    1.6300    1.6400    1.6500    1.6600    1.6700
    1.6800    1.6900    1.7000    1.7100    1.7200    1.7300    1.7400    1.7500
    1.7600    1.7700    1.7800    1.7900    1.8000    1.8100    1.8200    1.8300
    1.8400    1.8500    1.8600    1.8700    1.8800    1.8900    1.9000    1.9100
    1.9200    1.9300    1.9400    1.9500    1.9600    1.9700    1.9800    1.9900
    2.0000    2.0100    2.0200    2.0300    2.0400    2.0500    2.0600    2.0700
    2.0800    2.0900    2.1000    2.1100    2.1200    2.1300    2.1400    2.1500
    2.1600    2.1700    2.1800    2.1900    2.2000    2.2100    2.2200    2.2300
    2.2400    2.2500    2.2600    2.2700    2.2800    2.2900    2.3000    2.3100
    2.3200    2.3300    2.3400    2.3500    2.3600    2.3700    2.3800    2.3900
    2.4000    2.4100    2.4200    2.4300    2.4400    2.4500    2.4600    2.4700
    2.4800    2.4900    2.5000    2.5100    2.5200    2.5300    2.5400    2.5500
    2.5600    2.5700    2.5800    2.5900    2.6000    2.6100    2.6200    2.6300
    2.6400    2.6500    2.6600    2.6700    2.6800    2.6900    2.7000    2.7100
    2.7200    2.7300    2.7400    2.7500    2.7600    2.7700    2.7800    2.7900
    2.8000    2.8100    2.8200    2.8300    2.8400    2.8500    2.8600    2.8700
    2.8800    2.8900    2.9000    2.9100    2.9200    2.9300    2.9400    2.9500
    2.9600    2.9700    2.9800    2.9900    3.0000    3.0100    3.0200    3.0300
    3.0400    3.0500    3.0600    3.0700    3.0800    3.0900    3.1000    3.1100
    3.1200    3.1300    3.1400    3.1500    3.1600    3.1700    3.1800    3.1900
    3.2000    3.2100    3.2200    3.2300    3.2400    3.2500    3.2600    3.2700
    3.2800    3.2900    3.3000    3.3100    3.3200    3.3300    3.3400    3.3500
    3.3600    3.3700    3.3800    3.3900    3.4000    3.4100    3.4200    3.4300
    3.4400    3.4500    3.4600    3.4700    3.4800    3.4900    3.5000    3.5100
    3.5200    3.5300    3.5400    3.5500    3.5600    3.5700    3.5800    3.5900
    3.6000    3.6100    3.6200    3.6300    3.6400    3.6500    3.6600    3.6700
    3.6800    3.6900    3.7000    3.7100    3.7200    3.7300    3.7400    3.7500
    3.7600    3.7700    3.7800    3.7900    3.8000    3.8100    3.8200    3.8300
    3.8400    3.8500    3.8600    3.8700    3.8800    3.8900    3.9000    3.9100
    3.9200    3.9300    3.9400    3.9500    3.9600    3.9700    3.9800    3.9900
    4.0000    4.0100    4.0200    4.0300    4.0400    4.0500    4.0600    4.0700
    4.0800    4.0900    4.1000    4.1100    4.1200    4.1300    4.1400    4.1500
    4.1600    4.1700    4.1800    4.1900    4.2000    4.2100    4.2200    4.2300
    4.2400    4.2500    4.2600    4.2700    4.2800    4.2900    4.3000    4.3100
    4.3200    4.3300    4.3400    4.3500    4.3600    4.3700    4.3800    4.3900
    4.4000    4.4100    4.4200    4.4300    4.4400    4.4500    4.4600    4.4700
    4.4800    4.4900    4.5000    4.5100    4.5200    4.5300    4.5400    4.5500
    4.5600    4.5700    4.5800    4.5900    4.6000    4.6100    4.6200    4.6300
    4.6400    4.6500    4.6600    4.6700    4.6800    4.6900    4.7000    4.7100
    4.7200    4.7300    4.7400    4.7500    4.7600    4.7700    4.7800    4.7900
    4.8000    4.8100    4.8200    4.8300    4.8400    4.8500    4.8600    4.8700
    4.8800    4.8900    4.9000    4.9100    4.9200    4.9300    4.9400    4.9500
    4.9600    4.9700    4.9800    4.9900    5.0000    5.0100    5.0200    5.0300
    5.0400    5.0500    5.0600    5.0700    5.0800    5.0900    5.1000    5.1100
    5.1200    5.1300    5.1400    5.1500    5.1600    5.1700    5.1800    5.1900
    5.2000    5.2100    5.2200    5.2300    5.2400    5.2500    5.2600    5.2700
    5.2800    5.2900    5.3000    5.3100    5.3200    5.3300    5.3400    5.3500
    5.3600    5.3700    5.3800    5.3900    5.4000    5.4100    5.4200    5.4300
    5.4400    5.4500    5.4600    5.4700    5.4800    5.4900    5.5000    5.5100
    5.5200    5.5300    5.5400    5.5500    5.5600    5.5700    5.5800    5.5900
    5.6000    5.6100    5.6200    5.6300    5.6400    5.6500    5.6600    5.6700
    5.6800    5.6900    5.7000    5.7100    5.7200    5.7300    5.7400    5.7500
    5.7600    5.7700    5.7800    5.7900    5.8000    5.8100    5.8200    5.8300
    5.8400    5.8500    5.8600    5.8700    5.8800    5.8900    5.9000    5.9100
    5.9200    5.9300    5.9400    5.9500    5.9600    5.9700    5.9800    5.9900
    6.0000    6.0100    6.0200    6.0300    6.0400    6.0500    6.0600    6.0700
    6.0800    6.0900    6.1000    6.1100    6.1200    6.1300    6.1400    6.1500
    6.1600    6.1700    6.1800    6.1900    6.2000    6.2100    6.2200    6.2300
    6.2400    6.2500    6.2600    6.2700    6.2800    6.2900    6.3000    6.3100
    6.3200    6.3300    6.3400    6.3500    6.3600    6.3700    6.3800    6.3900
    6.4000    6.4100    6.4200    6.4300    6.4400    6.4500    6.4600    6.4700
    6.4800    6.4900    6.5000    6.5100    6.5200    6.5300    6.5400    6.5500
    6.5600    6.5700    6.5800    6.5900    6.6000    6.6100    6.6200    6.6300
    6.6400    6.6500    6.6600    6.6700    6.6800    6.6900    6.7000    6.7100
    6.7200    6.7300    6.7400    6.7500    6.7600    6.7700    6.7800    6.7900
    6.8000    6.8100    6.8200    6.8300    6.8400    6.8500    6.8600    6.8700
    6.8800    6.8900    6.9000    6.9100    6.9200    6.9300    6.9400    6.9500
    6.9600    6.9700    6.9800    6.9900    7.0000    7.0100    7.0200    7.0300
    7.0400    7.0500    7.0600    7.0700    7.0800    7.0900    7.1000    7.1100
    7.1200    7.1300    7.1400    7.1500    7.1600    7.1700    7.1800    7.1900
    7.2000    7.2100    7.2200    7.2300    7.2400    7.2500    7.2600    7.2700
    7.2800    7.2900    7.3000    7.3100    7.3200    7.3300    7.3400    7.3500
    7.3600    7.3700    7.3800    7.3900    7.4000    7.4100    7.4200    7.4300
    7.4400    7.4500    7.4600    7.4700    7.4800    7.4900
   </PP_R>
   <PP_RAB type="real"  size=" 750" columns="8">
    0.0100    0.0100    0.0100    0.0100    0.0100    0.0100    0.0100    0.0100
    0.0100    0.0100    0.0100    0.0100    0.0100    0.0100    0.0100    0.0100
    0.0100    0.0100    0.0100    0.0100    0.0100    0.0100    0.0100    0.0100
    0.0100    0.0100    0.0100    0.0100    0.0100    0.0100    0.0100    0.0100
    0.0100    0.0100    0.0100    0.0100    0.0100    0.0100    0.0100    0.0100
    0.0100    0.0100    0.0100    0.0100    0.0100    0.0100    0.0100    0.0100
    0.0100    0.0100    0.0100    0.0100    0.0100    0.0100    0.0100    0.0100
    0.0100    0.0100    0.0100    0.0100    0.0100    0.0100    0.0100    0.0100
    0.0100    0.0100    0.0100    0.0100    0.0100    0.0100    0.0100    0.0100
    0.0100    0.0100    0.0100    0.0100    0.0100    0.0100    0.0100    0.0100
    0.0100    0.0100    0.0100    0.0100    0.0100    0.0100    0.0100    0.0100
    0.0100    0.0100    0.0100    0.0100    0.0100    0.0100    0.0100    0.0100
    0.0100    0.0100    0.0100    0.0100    0.0100    0.0100    0.0100    0.0100
    0.0100    0.0100    0.0100    0.0100    0.0100    0.0100    0.0100    0.0100
    0.0100    0.0100    0.0100    0.0100    0.0100    0.0100    0.0100    0.0100
    0.0100    0.0100    0.0100    0.0100    0.0100    0.0100    0.0100    0.0100
    0.0100    0.0100    0.0100    0.0100    0.0100    0.0100    0.0100    0.0100
    0.0100    0.0100    0.0100    0.0100    0.0100    0.0100    0.0100    0.0100
    0.0100    0.0100    0.0100    0.0100    0.0100    0.0100    0.0100    0.0100
    0.0100    0.0100    0.0100    0.0100    0.0100    0.0100    0.0100    0.0100
    0.0100    0.0100    0.0100    0.0100    0.0100    0.0100    0.0100    0.0100
    0.0100    0.0100    0.0100    0.0100    0.0100    0.0100    0.0100    0.0100
    0.0100    0.0100    0.0100    0.0100    0.0100    0.0100    0.0100    0.0100
    0.0100    0.0100    0.0100    0.0100    0.0100    0.0100    0.0100    0.0100
    0.0100    0.0100    0.0100    0.0100    0.0100    0.0100    0.0100    0.0100
    0.0100    0.0100    0.0100    0.0100    0.0100    0.0100    0.0100    0.0100
    0.0100    0.0100    0.0100    0.0100    0.0100    0.0100    0.0100    0.0100
    0.0100    0.0100    0.0100    0.0100    0.0100    0.0100    0.0100    0.0100
    0.0100    0.0100    0.0100    0.0100    0.0100    0.0100    0.0100    0.0100
    0.0100    0.0100    0.0100    0.0100    0.0100    0.0100    0.0100    0.0100
    0.0100    0.0100    0.0100    0.0100    0.0100    0.0100    0.0100    0.0100
    0.0100    0.0100    0.0100    0.0100    0.0100    0.0100    0.0100    0.0100
    0.0100    0.0100    0.0100    0.0100    0.0100    0.0100    0.0100    0.0100
    0.0100    0.0100    0.0100    0.0100    0.0100    0.0100    0.0100    0.0100
    0.0100    0.0100    0.0100    0.0100    0.0100    0.0100    0.0100    0.0100
    0.0100    0.0100    0.0100    0.0100    0.0100    0.0100    0.0100    0.0100
    0.0100    0.0100    0.0100    0.0100    0.0100    0.0100    0.0100    0.0100
    0.0100    0.0100    0.0100    0.0100    0.0100    0.0100    0.0100    0.0100
    0.0100    0.0100    0.0100    0.0100    0.0100    0.0100    0.0100    0.0100
    0.0100    0.0100    0.0100    0.0100    0.0100    0.0100    0.0100    0.0100
    0.0100    0.0100    0.0100    0.0100    0.0100    0.0100    0.0100    0.0100
    0.0100    0.0100    0.0100    0.0100    0.0100    0.0100    0.0100    0.0100
    0.0100    0.0100    0.0100    0.0100    0.0100    0.0100    0.0100    0.0100
    0.0100    0.0100    0.0100    0.0100    0.0100    0.0100    0.0100    0.0100
    0.0100    0.0100    0.0100    0.0100    0.0100    0.0100    0.0100    0.0100
    0.0100    0.0100    0.0100    0.0100    0.0100    0.0100    0.0100    0.0100
    0.0100    0.0100    0.0100    0.0100    0.0100    0.0100    0.0100    0.0100
    0.0100    0.0100    0.0100    0.0100    0.0100    0.0100    0.0100    0.0100
    0.0100    0.0100    0.0100    0.0100    0.0100    0.0100    0.0100    0.0100
    0.0100    0.0100    0.0100    0.0100    0.0100    0.0100    0.0100    0.0100
    0.0100    0.0100    0.0100    0.0100    0.0100    0.0100    0.0100    0.0100
    0.0100    0.0100    0.0100    0.0100    0.0100    0.0100    0.0100    0.0100
    0.0100    0.0100    0.0100    0.0100    0.0100    0.0100    0.0100    0.0100
    0.0100    0.0100    0.0100    0.0100    0.0100    0.0100    0.0100    0.0100
    0.0100    0.0100    0.0100    0.0100    0.0100    0.0100    0.0100    0.0100
    0.0100    0.0100    0.0100    0.0100    0.0100    0.0100    0.0100    0.0100
    0.0100    0.0100    0.0100    0.0100    0.0100    0.0100    0.0100    0.0100
    0.0100    0.0100    0.0100    0.0100    0.0100    0.0100    0.0100    0.0100
    0.0100    0.0100    0.0100    0.0100    0.0100    0.0100    0.0100    0.0100
    0.0100    0.0100    0.0100    0.0100    0.0100    0.0100    0.0100    0.0100
    0.0100    0.0100    0.0100    0.0100    0.0100    0.0100    0.0100    0.0100
    0.0100    0.0100    0.0100    0.0100    0.0100    0.0100    0.0100    0.0100
    0.0100    0.0100    0.0100    0.0100    0.0100    0.0100    0.0100    0.0100
    0.0100    0.0100    0.0100    0.0100    0.0100    0.0100    0.0100    0.0100
    0.0100    0.0100    0.0100    0.0100    0.0100    0.0100    0.0100    0.0100
    0.0100    0.0100    0.0100    0.0100    0.0100    0.0100    0.0100    0.0100
    0.0100    0.0100    0.0100    0.0100    0.0100    0.0100    0.0100    0.0100
    0.0100    0.0100    0.0100    0.0100    0.0100    0.0100    0.0100    0.0100
    0.0100    0.0100    0.0100    0.0100    0.0100    0.0100    0.0100    0.0100
    0.0100    0.0100    0.0100    0.0100    0.0100    0.0100    0.0100    0.0100
    0.0100    0.0100    0.0100    0.0100    0.0100    0.0100    0.0100    0.0100
    0.0100    0.0100    0.0100    0.0100    0.0100    0.0100    0.0100    0.0100
    0.0100    0.0100    0.0100    0.0100    0.0100    0.0100    0.0100    0.0100
    0.0100    0.0100    0.0100    0.0100    0.0100    0.0100    0.0100    0.0100
    0.0100    0.0100    0.0100    0.0100    0.0100    0.0100    0.0100    0.0100
    0.0100    0.0100    0.0100    0.0100    0.0100    0.0100    0.0100    0.0100
    0.0100    0.0100    0.0100    0.0100    0.0100    0.0100    0.0100    0.0100
    0.0100    0.0100    0.0100    0.0100    0.0100    0.0100    0.0100    0.0100
    0.0100    0.0100    0.0100    0.0100    0.0100    0.0100    0.0100    0.0100
    0.0100    0.0100    0.0100    0.0100    0.0100    0.0100    0.0100    0.0100
    0.0100    0.0100    0.0100    0.0100    0.0100    0.0100    0.0100    0.0100
    0.0100    0.0100    0.0100    0.0100    0.0100    0.0100    0.0100    0.0100
    0.0100    0.0100    0.0100    0.0100    0.0100    0.0100    0.0100    0.0100
    0.0100    0.0100    0.0100    0.0100    0.0100    0.0100    0.0100    0.0100
    0.0100    0.0100    0.0100    0.0100    0.0100    0.0100    0.0100    0.0100
    0.0100    0.0100    0.0100    0.0100    0.0100    0.0100    0.0100    0.0100
    0.0100    0.0100    0.0100    0.0100    0.0100    0.0100    0.0100    0.0100
    0.0100    0.0100    0.0100    0.0100    0.0100    0.0100    0.0100    0.0100
    0.0100    0.0100    0.0100    0.0100    0.0100    0.0100    0.0100    0.0100
    0.0100    0.0100    0.0100    0.0100    0.0100    0.0100    0.0100    0.0100
    0.0100    0.0100    0.0100    0.0100    0.0100    0.0100    0.0100    0.0100
    0.0100    0.0100    0.0100    0.0100    0.0100    0.0100    0.0100    0.0100
    0.0100    0.0100    0.0100    0.0100    0.0100    0.0100    0.0100    0.0100
    0.0100    0.0100    0.0100    0.0100    0.0100    0.0100
   </PP_RAB>
 </PP_MESH>
  <PP_LOCAL type="real"  size=" 750" columns="4">
   -1.7581688850E+01   -1.7581009564E+01   -1.7578973777E+01   -1.7575587473E+01
   -1.7570860507E+01   -1.7564806415E+01   -1.7557442146E+01   -1.7548787755E+01
   -1.7538866039E+01   -1.7527702142E+01   -1.7515323141E+01   -1.7501757614E+01
   -1.7487035218E+01   -1.7471186278E+01   -1.7454241387E+01   -1.7436231046E+01
   -1.7417185328E+01   -1.7397133582E+01   -1.7376104178E+01   -1.7354124289E+01
   -1.7331219711E+01   -1.7307414725E+01   -1.7282731995E+01   -1.7257192499E+01
   -1.7230815485E+01   -1.7203618468E+01   -1.7175617235E+01   -1.7146825886E+01
   -1.7117256883E+01   -1.7086921120E+01   -1.7055828000E+01   -1.7023985533E+01
   -1.6991400424E+01   -1.6958078186E+01   -1.6924023244E+01   -1.6889239047E+01
   -1.6853728180E+01   -1.6817492475E+01   -1.6780533125E+01   -1.6742850787E+01
   -1.6704445695E+01   -1.6665317761E+01   -1.6625466673E+01   -1.6584891993E+01
   -1.6543593248E+01   -1.6501570015E+01   -1.6458822004E+01   -1.6415349135E+01
   -1.6371151612E+01   -1.6326229983E+01   -1.6280585210E+01   -1.6234218717E+01
   -1.6187132450E+01   -1.6139328914E+01   -1.6090811221E+01   -1.6041583122E+01
   -1.5991649040E+01   -1.5941014096E+01   -1.5889684131E+01   -1.5837665721E+01
   -1.5784966194E+01   -1.5731593635E+01   -1.5677556890E+01   -1.5622865571E+01
   -1.5567530048E+01   -1.5511561445E+01   -1.5454971626E+01   -1.5397773189E+01
   -1.5339979441E+01   -1.5281604383E+01   -1.5222662687E+01   -1.5163169673E+01
   -1.5103141279E+01   -1.5042594033E+01   -1.4981545025E+01   -1.4920011869E+01
   -1.4858012675E+01   -1.4795566007E+01   -1.4732690850E+01   -1.4669406575E+01
   -1.4605732892E+01   -1.4541689820E+01   -1.4477297642E+01   -1.4412576867E+01
   -1.4347548189E+01   -1.4282232448E+01   -1.4216650590E+01   -1.4150823626E+01
   -1.4084772596E+01   -1.4018518528E+01   -1.3952082402E+01   -1.3885485111E+01
   -1.3818747428E+01   -1.3751889968E+01   -1.3684933157E+01   -1.3617897197E+01
   -1.3550802037E+01   -1.3483667342E+01   -1.3416512464E+01   -1.3349356417E+01
   -1.3282217851E+01   -1.3215115025E+01   -1.3148065791E+01   -1.3081087568E+01
   -1.3014197324E+01   -1.2947411563E+01   -1.2880746303E+01   -1.2814217068E+01
   -1.2747838872E+01   -1.2681626210E+01   -1.2615593048E+01   -1.2549752817E+01
   -1.2484118408E+01   -1.2418702163E+01   -1.2353515878E+01   -1.2288570800E+01
   -1.2223877624E+01   -1.2159446499E+01   -1.2095287030E+01   -1.2031408277E+01
   -1.1967818768E+01   -1.1904526500E+01   -1.1841538949E+01   -1.1778863076E+01
   -1.1716505339E+01   -1.1654471704E+01   -1.1592767653E+01   -1.1531398384E+01
   -1.1470367963E+01   -1.1409678570E+01   -1.1349346250E+01   -1.1289356691E+01
   -1.1229657829E+01   -1.1170291563E+01   -1.1111312464E+01   -1.1052698949E+01
   -1.0994442587E+01   -1.0936550900E+01   -1.0879023904E+01   -1.0821861875E+01
   -1.0765065159E+01   -1.0708633753E+01   -1.0652567410E+01   -1.0596865652E+01
   -1.0541527788E+01   -1.0486552925E+01   -1.0431939990E+01   -1.0377687740E+01
   -1.0323794775E+01   -1.0270259557E+01   -1.0217080420E+01   -1.0164255584E+01
   -1.0111783169E+01   -1.0059661206E+01   -1.0007887648E+01   -9.9564603855E+00
   -9.9053772526E+00   -9.8546360400E+00   -9.8042345044E+00   -9.7541703778E+00
   -9.7044413763E+00   -9.6550452084E+00   -9.6059795828E+00   -9.5572422153E+00
   -9.5088308361E+00   -9.4607431952E+00   -9.4129770687E+00   -9.3655302634E+00
   -9.3184006215E+00   -9.2715860249E+00   -9.2250843986E+00   -9.1788937137E+00
   -9.1330119904E+00   -9.0874372997E+00   -9.0421677656E+00   -8.9972015661E+00
   -8.9525369345E+00   -8.9081721594E+00   -8.8641055854E+00   -8.8203356124E+00
   -8.7768606955E+00   -8.7336793442E+00   -8.6907901208E+00   -8.6481916394E+00
   -8.6058825644E+00   -8.5638616080E+00   -8.5221275290E+00   -8.4806791297E+00
   -8.4395152541E+00   -8.3986347849E+00   -8.3580366412E+00   -8.3177197753E+00
   -8.2776831700E+00   -8.2379258359E+00   -8.1984468079E+00   -8.1592451425E+00
   -8.1203199147E+00   -8.0816702149E+00   -8.0432951459E+00   -8.0051938200E+00
   -7.9673653558E+00   -7.9298088758E+00   -7.8925235029E+00   -7.8555083583E+00
   -7.8187625585E+00   -7.7822852128E+00   -7.7460754211E+00   -7.7101322713E+00
   -7.6744548371E+00   -7.6390421763E+00   -7.6038933284E+00   -7.5690073132E+00
   -7.5343831288E+00   -7.5000197503E+00   -7.4659161284E+00   -7.4320711881E+00
   -7.3984838275E+00   -7.3651529171E+00   -7.3320772989E+00   -7.2992557853E+00
   -7.2666871593E+00   -7.2343701735E+00   -7.2023035498E+00   -7.1704859796E+00
   -7.1389161234E+00   -7.1075926111E+00   -7.0765140417E+00   -7.0456789842E+00
   -7.0150859773E+00   -6.9847335302E+00   -6.9546201232E+00   -6.9247442079E+00
   -6.8951042080E+00   -6.8656985204E+00   -6.8365255154E+00   -6.8075835378E+00
   -6.7788709078E+00   -6.7503859218E+00   -6.7221268532E+00   -6.6940919537E+00
   -6.6662794541E+00   -6.6386875651E+00   -6.6113144785E+00   -6.5841583680E+00
   -6.5572173904E+00   -6.5304896863E+00   -6.5039733814E+00   -6.4776665868E+00
   -6.4515674006E+00   -6.4256739082E+00   -6.3999841834E+00   -6.3744962890E+00
   -6.3492082777E+00   -6.3241181925E+00   -6.2992240673E+00   -6.2745239282E+00
   -6.2500157928E+00   -6.2256976695E+00   -6.2015675647E+00   -6.1776234747E+00
   -6.1538633922E+00   -6.1302852878E+00   -6.1068871354E+00   -6.0836669126E+00
   -6.0606226100E+00   -6.0377522355E+00   -6.0150538164E+00   -5.9925254206E+00
   -5.9701651458E+00   -5.9479711203E+00   -5.9259414967E+00   -5.9040744541E+00
   -5.8823681997E+00   -5.8608209668E+00   -5.8394310141E+00   -5.8181966258E+00
   -5.7971161109E+00   -5.7761878029E+00   -5.7554100592E+00   -5.7347812608E+00
   -5.7142998120E+00   -5.6939641395E+00   -5.6737726926E+00   -5.6537239423E+00
   -5.6338163812E+00   -5.6140485231E+00   -5.5944189027E+00   -5.5749260749E+00
   -5.5555686147E+00   -5.5363451169E+00   -5.5172541958E+00   -5.4982944845E+00
   -5.4794646350E+00   -5.4607633175E+00   -5.4421892207E+00   -5.4237410506E+00
   -5.4054175310E+00   -5.3872174027E+00   -5.3691394236E+00   -5.3511823681E+00
   -5.3333450270E+00   -5.3156262069E+00   -5.2980247307E+00   -5.2805394364E+00
   -5.2631691775E+00   -5.2459128225E+00   -5.2287692548E+00   -5.2117373720E+00
   -5.1948160864E+00   -5.1780043243E+00   -5.1613010256E+00   -5.1447051441E+00
   -5.1282156470E+00   -5.1118315146E+00   -5.0955517403E+00   -5.0793753300E+00
   -5.0633013025E+00   -5.0473286889E+00   -5.0314565325E+00   -5.0156838884E+00
   -5.0000098238E+00   -4.9844334173E+00   -4.9689537592E+00   -4.9535699507E+00
   -4.9382811044E+00   -4.9230863437E+00   -4.9079848028E+00   -4.8929756264E+00
   -4.8780579697E+00   -4.8632309983E+00   -4.8484938877E+00   -4.8338458234E+00
   -4.8192860008E+00   -4.8048136250E+00   -4.7904279104E+00   -4.7761280810E+00
   -4.7619133700E+00   -4.7477830196E+00   -4.7337362810E+00   -4.7197724144E+00
   -4.7058906885E+00   -4.6920903806E+00   -4.6783707766E+00   -4.6647311706E+00
   -4.6511708649E+00   -4.6376891699E+00   -4.6242854041E+00   -4.6109588938E+00
   -4.5977089728E+00   -4.5845349828E+00   -4.5714362731E+00   -4.5584122002E+00
   -4.5454621279E+00   -4.5325854274E+00   -4.5197814768E+00   -4.5070496615E+00
   -4.4943893734E+00   -4.4818000116E+00   -4.4692809816E+00   -4.4568316957E+00
   -4.4444515728E+00   -4.4321400380E+00   -4.4198965230E+00   -4.4077204656E+00
   -4.3956113098E+00   -4.3835685057E+00   -4.3715915096E+00   -4.3596797834E+00
   -4.3478327950E+00   -4.3360500181E+00   -4.3243309321E+00   -4.3126750220E+00
   -4.3010817783E+00   -4.2895506969E+00   -4.2780812792E+00   -4.2666730320E+00
   -4.2553254671E+00   -4.2440381016E+00   -4.2328104579E+00   -4.2216420631E+00
   -4.2105324495E+00   -4.1994811542E+00   -4.1884877193E+00   -4.1775516916E+00
   -4.1666726224E+00   -4.1558500681E+00   -4.1450835894E+00   -4.1343727515E+00
   -4.1237171243E+00   -4.1131162820E+00   -4.1025698031E+00   -4.0920772705E+00
   -4.0816382714E+00   -4.0712523972E+00   -4.0609192432E+00   -4.0506384092E+00
   -4.0404094987E+00   -4.0302321194E+00   -4.0201058828E+00   -4.0100304045E+00
   -4.0000053037E+00   -3.9900302035E+00   -3.9801047308E+00   -3.9702285162E+00
   -3.9604011938E+00   -3.9506224016E+00   -3.9408917809E+00   -3.9312089766E+00
   -3.9215736371E+00   -3.9119854144E+00   -3.9024439636E+00   -3.8929489434E+00
   -3.8835000155E+00   -3.8740968454E+00   -3.8647391013E+00   -3.8554264548E+00
   -3.8461585808E+00   -3.8369351572E+00   -3.8277558649E+00   -3.8186203879E+00
   -3.8095284133E+00   -3.8004796311E+00   -3.7914737342E+00   -3.7825104185E+00
   -3.7735893827E+00   -3.7647103283E+00   -3.7558729598E+00   -3.7470769842E+00
   -3.7383221113E+00   -3.7296080538E+00   -3.7209345269E+00   -3.7123012485E+00
   -3.7037079391E+00   -3.6951543217E+00   -3.6866401220E+00   -3.6781650682E+00
   -3.6697288908E+00   -3.6613313231E+00   -3.6529721004E+00   -3.6446509609E+00
   -3.6363676449E+00   -3.6281218950E+00   -3.6199134562E+00   -3.6117420760E+00
   -3.6036075038E+00   -3.5955094917E+00   -3.5874477935E+00   -3.5794221657E+00
   -3.5714323667E+00   -3.5634781570E+00   -3.5555592995E+00   -3.5476755589E+00
   -3.5398267022E+00   -3.5320124984E+00   -3.5242327185E+00   -3.5164871355E+00
   -3.5087755244E+00   -3.5010976622E+00   -3.4934533279E+00   -3.4858423023E+00
   -3.4782643682E+00   -3.4707193103E+00   -3.4632069150E+00   -3.4557269707E+00
   -3.4482792677E+00   -3.4408635978E+00   -3.4334797549E+00   -3.4261275346E+00
   -3.4188067340E+00   -3.4115171523E+00   -3.4042585902E+00   -3.3970308500E+00
   -3.3898337360E+00   -3.3826670537E+00   -3.3755306107E+00   -3.3684242160E+00
   -3.3613476801E+00   -3.3543008153E+00   -3.3472834353E+00   -3.3402953556E+00
   -3.3333363928E+00   -3.3264063656E+00   -3.3195050937E+00   -3.3126323986E+00
   -3.3057881031E+00   -3.2989720315E+00   -3.2921840097E+00   -3.2854238648E+00
   -3.2786914255E+00   -3.2719865218E+00   -3.2653089852E+00   -3.2586586483E+00
   -3.2520353453E+00   -3.2454389118E+00   -3.2388691846E+00   -3.2323260018E+00
   -3.2258092028E+00   -3.2193186284E+00   -3.2128541207E+00   -3.2064155228E+00
   -3.2000026794E+00   -3.1936154363E+00   -3.1872536403E+00   -3.1809171399E+00
   -3.1746057843E+00   -3.1683194242E+00   -3.1620579115E+00   -3.1558210990E+00
   -3.1496088410E+00   -3.1434209927E+00   -3.1372574106E+00   -3.1311179521E+00
   -3.1250024759E+00   -3.1189108417E+00   -3.1128429105E+00   -3.1067985441E+00
   -3.1007776055E+00   -3.0947799588E+00   -3.0888054691E+00   -3.0828540025E+00
   -3.0769254262E+00   -3.0710196084E+00   -3.0651364183E+00   -3.0592757261E+00
   -3.0534374030E+00   -3.0476213212E+00   -3.0418273538E+00   -3.0360553750E+00
   -3.0303052598E+00   -3.0245768841E+00   -3.0188701250E+00   -3.0131848604E+00
   -3.0075209690E+00   -3.0018783304E+00   -2.9962568254E+00   -2.9906563355E+00
   -2.9850767429E+00   -2.9795179309E+00   -2.9739797838E+00   -2.9684621863E+00
   -2.9629650245E+00   -2.9574881850E+00   -2.9520315552E+00   -2.9465950235E+00
   -2.9411784791E+00   -2.9357818120E+00   -2.9304049130E+00   -2.9250476736E+00
   -2.9197099862E+00   -2.9143917439E+00   -2.9090928408E+00   -2.9038131714E+00
   -2.8985526314E+00   -2.8933111168E+00   -2.8880885247E+00   -2.8828847528E+00
   -2.8776996996E+00   -2.8725332641E+00   -2.8673853464E+00   -2.8622558471E+00
   -2.8571446674E+00   -2.8520517094E+00   -2.8469768759E+00   -2.8419200702E+00
   -2.8368811965E+00   -2.8318601596E+00   -2.8268568648E+00   -2.8218712184E+00
   -2.8169031272E+00   -2.8119524985E+00   -2.8070192405E+00   -2.8021032618E+00
   -2.7972044720E+00   -2.7923227809E+00   -2.7874580992E+00   -2.7826103382E+00
   -2.7777794097E+00   -2.7729652263E+00   -2.7681677009E+00   -2.7633867474E+00
   -2.7586222799E+00   -2.7538742134E+00   -2.7491424633E+00   -2.7444269456E+00
   -2.7397275770E+00   -2.7350442747E+00   -2.7303769564E+00   -2.7257255403E+00
   -2.7210899455E+00   -2.7164700912E+00   -2.7118658975E+00   -2.7072772848E+00
   -2.7027041743E+00   -2.6981464874E+00   -2.6936041463E+00   -2.6890770736E+00
   -2.6845651924E+00   -2.6800684265E+00   -2.6755866999E+00   -2.6711199374E+00
   -2.6666680641E+00   -2.6622310058E+00   -2.6578086885E+00   -2.6534010390E+00
   -2.6490079843E+00   -2.6446294522E+00   -2.6402653708E+00   -2.6359156685E+00
   -2.6315802745E+00   -2.6272591182E+00   -2.6229521298E+00   -2.6186592395E+00