<UPF version="2.0.1">
  <PP_INFO>

 This pseudopotential file has been produced using the code
 ONCVPSP  (Optimized Norm-Conservinng Vanderbilt PSeudopotential)
 scalar-relativistic version 4.0.1 06/04/2019 by D. R. Hamann
 The code is available through a link at URL www.mat-simresearch.com.
 Documentation with the package provides a full discription of the
 input data below.


 While it is not required under the terms of the GNU GPL, it is
 suggested that you cite D. R. Hamann, Phys. Rev. B 88, 085117 (2013)
 in any publication using these pseudopotentials.

    <PP_INPUTFILE>
# ATOM AND REFERENCE CONFIGURATION
# atsym  z   nc   nv     iexc    psfile
  Ar 18.00    3    2       4      upf
#
#   n    l    f        energy (Ha)
    1    0    2.00
    2    0    2.00
    2    1    6.00
    3    0    2.00
    3    1    6.00
#
# PSEUDOPOTENTIAL AND OPTIMIZATION
# lmax
    2
#
#   l,   rc,      ep,       ncon, nbas, qcut
    0   1.55000  -0.89000    4    8   8.20000
    1   1.55000  -0.38000    4    8   8.20000
    2   1.55000   0.10000    4    8   8.20000
#
# LOCAL POTENTIAL
# lloc, lpopt,  rc(5),   dvloc0
    4    5   1.50000      0.00000
#
# VANDERBILT-KLEINMAN-BYLANDER PROJECTORs
# l, nproj, debl
    0    2   1.50000
    1    2   1.50000
    2    2   1.00000
#
# MODEL CORE CHARGE
# icmod, fcfact, rcfact
    3   7.00000   1.25000
#
# LOG DERIVATIVE ANALYSIS
# epsh1, epsh2, depsh
  -12.00   12.00    0.02
#
# OUTPUT GRID
# rlmax, drl
    4.00    0.01
#
# TEST CONFIGURATIONS
# ncnf
    0
# nvcnf
#   n    l    f
    </PP_INPUTFILE>
  </PP_INFO>
  <!--                               -->
  <!-- END OF HUMAN READABLE SECTION -->
  <!--                               -->
    <PP_HEADER
       generated="Generated using ONCVPSP code by D. R. Hamann"
       author="anonymous"
       date="220414"
       comment=""
       element="Ar"
       pseudo_type="NC"
       relativistic="scalar"
       is_ultrasoft="F"
       is_paw="F"
       is_coulomb="F"
       has_so="F"
       has_wfc="F"
       has_gipaw="F"
       core_correction="T"
       functional="PBE"
       z_valence="    8.00"
       total_psenergy="  -4.23176504925E+01"
       rho_cutoff="   9.33000000000E+00"
       l_max="2"
       l_local="-1"
       mesh_size="   934"
       number_of_wfc="2"
       number_of_proj="6"/>
 <PP_MESH>
   <PP_R type="real"  size=" 934" columns="8">
    0.0000    0.0100    0.0200    0.0300    0.0400    0.0500    0.0600    0.0700
    0.0800    0.0900    0.1000    0.1100    0.1200    0.1300    0.1400    0.1500
    0.1600    0.1700    0.1800    0.1900    0.2000    0.2100    0.2200    0.2300
    0.2400    0.2500    0.2600    0.2700    0.2800    0.2900    0.3000    0.3100
    0.3200    0.3300    0.3400    0.3500    0.3600    0.3700    0.3800    0.3900
    0.4000    0.4100    0.4200    0.4300    0.4400    0.4500    0.4600    0.4700
    0.4800    0.4900    0.5000    0.5100    0.5200    0.5300    0.5400    0.5500
    0.5600    0.5700    0.5800    0.5900    0.6000    0.6100    0.6200    0.6300
    0.6400    0.6500    0.6600    0.6700    0.6800    0.6900    0.7000    0.7100
    0.7200    0.7300    0.7400    0.7500    0.7600    0.7700    0.7800    0.7900
    0.8000    0.8100    0.8200    0.8300    0.8400    0.8500    0.8600    0.8700
    0.8800    0.8900    0.9000    0.9100    0.9200    0.9300    0.9400    0.9500
    0.9600    0.9700    0.9800    0.9900    1.0000    1.0100    1.0200    1.0300
    1.0400    1.0500    1.0600    1.0700    1.0800    1.0900    1.1000    1.1100
    1.1200    1.1300    1.1400    1.1500    1.1600    1.1700    1.1800    1.1900
    1.2000    1.2100    1.2200    1.2300    1.2400    1.2500    1.2600    1.2700
    1.2800    1.2900    1.3000    1.3100    1.3200    1.3300    1.3400    1.3500
    1.3600    1.3700    1.3800    1.3900    1.4000    1.4100    1.4200    1.4300
    1.4400    1.4500    1.4600    1.4700    1.4800    1.4900    1.5000    1.5100
    1.5200    1.5300    1.5400    1.5500    1.5600    1.5700    1.5800    1.5900
    1.6000    1.6100    1.6200    1.6300    1.6400    1.6500    1.6600    1.6700
    1.6800    1.6900    1.7000    1.7100    1.7200    1.7300    1.7400    1.7500
    1.7600    1.7700    1.7800    1.7900    1.8000    1.8100    1.8200    1.8300
    1.8400    1.8500    1.8600    1.8700    1.8800    1.8900    1.9000    1.9100
    1.9200    1.9300    1.9400    1.9500    1.9600    1.9700    1.9800    1.9900
    2.0000    2.0100    2.0200    2.0300    2.0400    2.0500    2.0600    2.0700
    2.0800    2.0900    2.1000    2.1100    2.1200    2.1300    2.1400    2.1500
    2.1600    2.1700    2.1800    2.1900    2.2000    2.2100    2.2200    2.2300
    2.2400    2.2500    2.2600    2.2700    2.2800    2.2900    2.3000    2.3100
    2.3200    2.3300    2.3400    2.3500    2.3600    2.3700    2.3800    2.3900
    2.4000    2.4100    2.4200    2.4300    2.4400    2.4500    2.4600    2.4700
    2.4800    2.4900    2.5000    2.5100    2.5200    2.5300    2.5400    2.5500
    2.5600    2.5700    2.5800    2.5900    2.6000    2.6100    2.6200    2.6300
    2.6400    2.6500    2.6600    2.6700    2.6800    2.6900    2.7000    2.7100
    2.7200    2.7300    2.7400    2.7500    2.7600    2.7700    2.7800    2.7900
    2.8000    2.8100    2.8200    2.8300    2.8400    2.8500    2.8600    2.8700
    2.8800    2.8900    2.9000    2.9100    2.9200    2.9300    2.9400    2.9500
    2.9600    2.9700    2.9800    2.9900    3.0000    3.0100    3.0200    3.0300
    3.0400    3.0500    3.0600    3.0700    3.0800    3.0900    3.1000    3.1100
    3.1200    3.1300    3.1400    3.1500    3.1600    3.1700    3.1800    3.1900
    3.2000    3.2100    3.2200    3.2300    3.2400    3.2500    3.2600    3.2700
    3.2800    3.2900    3.3000    3.3100    3.3200    3.3300    3.3400    3.3500
    3.3600    3.3700    3.3800    3.3900    3.4000    3.4100    3.4200    3.4300
    3.4400    3.4500    3.4600    3.4700    3.4800    3.4900    3.5000    3.5100
    3.5200    3.5300    3.5400    3.5500    3.5600    3.5700    3.5800    3.5900
    3.6000    3.6100    3.6200    3.6300    3.6400    3.6500    3.6600    3.6700
    3.6800    3.6900    3.7000    3.7100    3.7200    3.7300    3.7400    3.7500
    3.7600    3.7700    3.7800    3.7900    3.8000    3.8100    3.8200    3.8300
    3.8400    3.8500    3.8600    3.8700    3.8800    3.8900    3.9000    3.9100
    3.9200    3.9300    3.9400    3.9500    3.9600    3.9700    3.9800    3.9900
    4.0000    4.0100    4.0200    4.0300    4.0400    4.0500    4.0600    4.0700
    4.0800    4.0900    4.1000    4.1100    4.1200    4.1300    4.1400    4.1500
    4.1600    4.1700    4.1800    4.1900    4.2000    4.2100    4.2200    4.2300
    4.2400    4.2500    4.2600    4.2700    4.2800    4.2900    4.3000    4.3100
    4.3200    4.3300    4.3400    4.3500    4.3600    4.3700    4.3800    4.3900
    4.4000    4.4100    4.4200    4.4300    4.4400    4.4500    4.4600    4.4700
    4.4800    4.4900    4.5000    4.5100    4.5200    4.5300    4.5400    4.5500
    4.5600    4.5700    4.5800    4.5900    4.6000    4.6100    4.6200    4.6300
    4.6400    4.6500    4.6600    4.6700    4.6800    4.6900    4.7000    4.7100
    4.7200    4.7300    4.7400    4.7500    4.7600    4.7700    4.7800    4.7900
    4.8000    4.8100    4.8200    4.8300    4.8400    4.8500    4.8600    4.8700
    4.8800    4.8900    4.9000    4.9100    4.9200    4.9300    4.9400    4.9500
    4.9600    4.9700    4.9800    4.9900    5.0000    5.0100    5.0200    5.0300
    5.0400    5.0500    5.0600    5.0700    5.0800    5.0900    5.1000    5.1100
    5.1200    5.1300    5.1400    5.1500    5.1600    5.1700    5.1800    5.1900
    5.2000    5.2100    5.2200    5.2300    5.2400    5.2500    5.2600    5.2700
    5.2800    5.2900    5.3000    5.3100    5.3200    5.3300    5.3400    5.3500
    5.3600    5.3700    5.3800    5.3900    5.4000    5.4100    5.4200    5.4300
    5.4400    5.4500    5.4600    5.4700    5.4800    5.4900    5.5000    5.5100
    5.5200    5.5300    5.5400    5.5500    5.5600    5.5700    5.5800    5.5900
    5.6000    5.6100    5.6200    5.6300    5.6400    5.6500    5.6600    5.6700
    5.6800    5.6900    5.7000    5.7100    5.7200    5.7300    5.7400    5.7500
    5.7600    5.7700    5.7800    5.7900    5.8000    5.8100    5.8200    5.8300
    5.8400    5.8500    5.8600    5.8700    5.8800    5.8900    5.9000    5.9100
    5.9200    5.9300    5.9400    5.9500    5.9600    5.9700    5.9800    5.9900
    6.0000    6.0100    6.0200    6.0300    6.0400    6.0500    6.0600    6.0700
    6.0800    6.0900    6.1000    6.1100    6.1200    6.1300    6.1400    6.1500
    6.1600    6.1700    6.1800    6.1900    6.2000    6.2100    6.2200    6.2300
    6.2400    6.2500    6.2600    6.2700    6.2800    6.2900    6.3000    6.3100
    6.3200    6.3300    6.3400    6.3500    6.3600    6.3700    6.3800    6.3900
    6.4000    6.4100    6.4200    6.4300    6.4400    6.4500    6.4600    6.4700
    6.4800    6.4900    6.5000    6.5100    6.5200    6.5300    6.5400    6.5500
    6.5600    6.5700    6.5800    6.5900    6.6000    6.6100    6.6200    6.6300
    6.6400    6.6500    6.6600    6.6700    6.6800    6.6900    6.7000    6.7100
    6.7200    6.7300    6.7400    6.7500    6.7600    6.7700    6.7800    6.7900
    6.8000    6.8100    6.8200    6.8300    6.8400    6.8500    6.8600    6.8700
    6.8800    6.8900    6.9000    6.9100    6.9200    6.9300    6.9400    6.9500
    6.9600    6.9700    6.9800    6.9900    7.0000    7.0100    7.0200    7.0300
    7.0400    7.0500    7.0600    7.0700    7.0800    7.0900    7.1000    7.1100
    7.1200    7.1300    7.1400    7.1500    7.1600    7.1700    7.1800    7.1900
    7.2000    7.2100    7.2200    7.2300    7.2400    7.2500    7.2600    7.2700
    7.2800    7.2900    7.3000    7.3100    7.3200    7.3300    7.3400    7.3500
    7.3600    7.3700    7.3800    7.3900    7.4000    7.4100    7.4200    7.4300
    7.4400    7.4500    7.4600    7.4700    7.4800    7.4900    7.5000    7.5100
    7.5200    7.5300    7.5400    7.5500    7.5600    7.5700    7.5800    7.5900
    7.6000    7.6100    7.6200    7.6300    7.6400    7.6500    7.6600    7.6700
    7.6800    7.6900    7.7000    7.7100    7.7200    7.7300    7.7400    7.7500
    7.7600    7.7700    7.7800    7.7900    7.8000    7.8100    7.8200    7.8300
    7.8400    7.8500    7.8600    7.8700    7.8800    7.8900    7.9000    7.9100
    7.9200    7.9300    7.9400    7.9500    7.9600    7.9700    7.9800    7.9900
    8.0000    8.0100    8.0200    8.0300    8.0400    8.0500    8.0600    8.0700
    8.0800    8.0900    8.1000    8.1100    8.1200    8.1300    8.1400    8.1500
    8.1600    8.1700    8.1800    8.1900    8.2000    8.2100    8.2200    8.2300
    8.2400    8.2500    8.2600    8.2700    8.2800    8.2900    8.3000    8.3100
    8.3200    8.3300    8.3400    8.3500    8.3600    8.3700    8.3800    8.3900
    8.4000    8.4100    8.4200    8.4300    8.4400    8.4500    8.4600    8.4700
    8.4800    8.4900    8.5000    8.5100    8.5200    8.5300    8.5400    8.5500
    8.5600    8.5700    8.5800    8.5900    8.6000    8.6100    8.6200    8.6300
    8.6400    8.6500    8.6600    8.6700    8.6800    8.6900    8.7000    8.7100
    8.7200    8.7300    8.7400    8.7500    8.7600    8.7700    8.7800    8.7900
    8.8000    8.8100    8.8200    8.8300    8.8400    8.8500    8.8600    8.8700
    8.8800    8.8900    8.9000    8.9100    8.9200    8.9300    8.9400    8.9500
    8.9600    8.9700    8.9800    8.9900    9.0000    9.0100    9.0200    9.0300
    9.0400    9.0500    9.0600    9.0700    9.0800    9.0900    9.1000    9.1100
    9.1200    9.1300    9.1400    9.1500    9.1600    9.1700    9.1800    9.1900
    9.2000    9.2100    9.2200    9.2300    9.2400    9.2500    9.2600    9.2700
    9.2800    9.2900    9.3000    9.3100    9.3200    9.3300
   </PP_R>
   <PP_RAB type="real"  size=" 934" columns="8">
    0.0100    0.0100    0.0100    0.0100    0.0100    0.0100    0.0100    0.0100
    0.0100    0.0100    0.0100    0.0100    0.0100    0.0100    0.0100    0.0100
    0.0100    0.0100    0.0100    0.0100    0.0100    0.0100    0.0100    0.0100
    0.0100    0.0100    0.0100    0.0100    0.0100    0.0100    0.0100    0.0100
    0.0100    0.0100    0.0100    0.0100    0.0100    0.0100    0.0100    0.0100
    0.0100    0.0100    0.0100    0.0100    0.0100    0.0100    0.0100    0.0100
    0.0100    0.0100    0.0100    0.0100    0.0100    0.0100    0.0100    0.0100
    0.0100    0.0100    0.0100    0.0100    0.0100    0.0100    0.0100    0.0100
    0.0100    0.0100    0.0100    0.0100    0.0100    0.0100    0.0100    0.0100
    0.0100    0.0100    0.0100    0.0100    0.0100    0.0100    0.0100    0.0100
    0.0100    0.0100    0.0100    0.0100    0.0100    0.0100    0.0100    0.0100
    0.0100    0.0100    0.0100    0.0100    0.0100    0.0100    0.0100    0.0100
    0.0100    0.0100    0.0100    0.0100    0.0100    0.0100    0.0100    0.0100
    0.0100    0.0100    0.0100    0.0100    0.0100    0.0100    0.0100    0.0100
    0.0100    0.0100    0.0100    0.0100    0.0100    0.0100    0.0100    0.0100
    0.0100    0.0100    0.0100    0.0100    0.0100    0.0100    0.0100    0.0100
    0.0100    0.0100    0.0100    0.0100    0.0100    0.0100    0.0100    0.0100
    0.0100    0.0100    0.0100    0.0100    0.0100    0.0100    0.0100    0.0100
    0.0100    0.0100    0.0100    0.0100    0.0100    0.0100    0.0100    0.0100
    0.0100    0.0100    0.0100    0.0100    0.0100    0.0100    0.0100    0.0100
    0.0100    0.0100    0.0100    0.0100    0.0100    0.0100    0.0100    0.0100
    0.0100    0.0100    0.0100    0.0100    0.0100    0.0100    0.0100    0.0100
    0.0100    0.0100    0.0100    0.0100    0.0100    0.0100    0.0100    0.0100
    0.0100    0.0100    0.0100    0.0100    0.0100    0.0100    0.0100    0.0100
    0.0100    0.0100    0.0100    0.0100    0.0100    0.0100    0.0100    0.0100
    0.0100    0.0100    0.0100    0.0100    0.0100    0.0100    0.0100    0.0100
    0.0100    0.0100    0.0100    0.0100    0.0100    0.0100    0.0100    0.0100
    0.0100    0.0100    0.0100    0.0100    0.0100    0.0100    0.0100    0.0100
    0.0100    0.0100    0.0100    0.0100    0.0100    0.0100    0.0100    0.0100
    0.0100    0.0100    0.0100    0.0100    0.0100    0.0100    0.0100    0.0100
    0.0100    0.0100    0.0100    0.0100    0.0100    0.0100    0.0100    0.0100
    0.0100    0.0100    0.0100    0.0100    0.0100    0.0100    0.0100    0.0100
    0.0100    0.0100    0.0100    0.0100    0.0100    0.0100    0.0100    0.0100
    0.0100    0.0100    0.0100    0.0100    0.0100    0.0100    0.0100    0.0100
    0.0100    0.0100    0.0100    0.0100    0.0100    0.0100    0.0100    0.0100
    0.0100    0.0100    0.0100    0.0100    0.0100    0.0100    0.0100    0.0100
    0.0100    0.0100    0.0100    0.0100    0.0100    0.0100    0.0100    0.0100
    0.0100    0.0100    0.0100    0.0100    0.0100    0.0100    0.0100    0.0100
    0.0100    0.0100    0.0100    0.0100    0.0100    0.0100    0.0100    0.0100
    0.0100    0.0100    0.0100    0.0100    0.0100    0.0100    0.0100    0.0100
    0.0100    0.0100    0.0100    0.0100    0.0100    0.0100    0.0100    0.0100
    0.0100    0.0100    0.0100    0.0100    0.0100    0.0100    0.0100    0.0100
    0.0100    0.0100    0.0100    0.0100    0.0100    0.0100    0.0100    0.0100
    0.0100    0.0100    0.0100    0.0100    0.0100    0.0100    0.0100    0.0100
    0.0100    0.0100    0.0100    0.0100    0.0100    0.0100    0.0100    0.0100
    0.0100    0.0100    0.0100    0.0100    0.0100    0.0100    0.0100    0.0100
    0.0100    0.0100    0.0100    0.0100    0.0100    0.0100    0.0100    0.0100
    0.0100    0.0100    0.0100    0.0100    0.0100    0.0100    0.0100    0.0100
    0.0100    0.0100    0.0100    0.0100    0.0100    0.0100    0.0100    0.0100
    0.0100    0.0100    0.0100    0.0100    0.0100    0.0100    0.0100    0.0100
    0.0100    0.0100    0.0100    0.0100    0.0100    0.0100    0.0100    0.0100
    0.0100    0.0100    0.0100    0.0100    0.0100    0.0100    0.0100    0.0100
    0.0100    0.0100    0.0100    0.0100    0.0100    0.0100    0.0100    0.0100
    0.0100    0.0100    0.0100    0.0100    0.0100    0.0100    0.0100    0.0100
    0.0100    0.0100    0.0100    0.0100    0.0100    0.0100    0.0100    0.0100
    0.0100    0.0100    0.0100    0.0100    0.0100    0.0100    0.0100    0.0100
    0.0100    0.0100    0.0100    0.0100    0.0100    0.0100    0.0100    0.0100
    0.0100    0.0100    0.0100    0.0100    0.0100    0.0100    0.0100    0.0100
    0.0100    0.0100    0.0100    0.0100    0.0100    0.0100    0.0100    0.0100
    0.0100    0.0100    0.0100    0.0100    0.0100    0.0100    0.0100    0.0100
    0.0100    0.0100    0.0100    0.0100    0.0100    0.0100    0.0100    0.0100
    0.0100    0.0100    0.0100    0.0100    0.0100    0.0100    0.0100    0.0100
    0.0100    0.0100    0.0100    0.0100    0.0100    0.0100    0.0100    0.0100
    0.0100    0.0100    0.0100    0.0100    0.0100    0.0100    0.0100    0.0100
    0.0100    0.0100    0.0100    0.0100    0.0100    0.0100    0.0100    0.0100
    0.0100    0.0100    0.0100    0.0100    0.0100    0.0100    0.0100    0.0100
    0.0100    0.0100    0.0100    0.0100    0.0100    0.0100    0.0100    0.0100
    0.0100    0.0100    0.0100    0.0100    0.0100    0.0100    0.0100    0.0100
    0.0100    0.0100    0.0100    0.0100    0.0100    0.0100    0.0100    0.0100
    0.0100    0.0100    0.0100    0.0100    0.0100    0.0100    0.0100    0.0100
    0.0100    0.0100    0.0100    0.0100    0.0100    0.0100    0.0100    0.0100
    0.0100    0.0100    0.0100    0.0100    0.0100    0.0100    0.0100    0.0100
    0.0100    0.0100    0.0100    0.0100    0.0100    0.0100    0.0100    0.0100
    0.0100    0.0100    0.0100    0.0100    0.0100    0.0100    0.0100    0.0100
    0.0100    0.0100    0.0100    0.0100    0.0100    0.0100    0.0100    0.0100
    0.0100    0.0100    0.0100    0.0100    0.0100    0.0100    0.0100    0.0100
    0.0100    0.0100    0.0100    0.0100    0.0100    0.0100    0.0100    0.0100
    0.0100    0.0100    0.0100    0.0100    0.0100    0.0100    0.0100    0.0100
    0.0100    0.0100    0.0100    0.0100    0.0100    0.0100    0.0100    0.0100
    0.0100    0.0100    0.0100    0.0100    0.0100    0.0100    0.0100    0.0100
    0.0100    0.0100    0.0100    0.0100    0.0100    0.0100    0.0100    0.0100
    0.0100    0.0100    0.0100    0.0100    0.0100    0.0100    0.0100    0.0100
    0.0100    0.0100    0.0100    0.0100    0.0100    0.0100    0.0100    0.0100
    0.0100    0.0100    0.0100    0.0100    0.0100    0.0100    0.0100    0.0100
    0.0100    0.0100    0.0100    0.0100    0.0100    0.0100    0.0100    0.0100
    0.0100    0.0100    0.0100    0.0100    0.0100    0.0100    0.0100    0.0100
    0.0100    0.0100    0.0100    0.0100    0.0100    0.0100    0.0100    0.0100
    0.0100    0.0100    0.0100    0.0100    0.0100    0.0100    0.0100    0.0100
    0.0100    0.0100    0.0100    0.0100    0.0100    0.0100    0.0100    0.0100
    0.0100    0.0100    0.0100    0.0100    0.0100    0.0100    0.0100    0.0100
    0.0100    0.0100    0.0100    0.0100    0.0100    0.0100    0.0100    0.0100
    0.0100    0.0100    0.0100    0.0100    0.0100    0.0100    0.0100    0.0100
    0.0100    0.0100    0.0100    0.0100    0.0100    0.0100    0.0100    0.0100
    0.0100    0.0100    0.0100    0.0100    0.0100    0.0100    0.0100    0.0100
    0.0100    0.0100    0.0100    0.0100    0.0100    0.0100    0.0100    0.0100
    0.0100    0.0100    0.0100    0.0100    0.0100    0.0100    0.0100    0.0100
    0.0100    0.0100    0.0100    0.0100    0.0100    0.0100    0.0100    0.0100
    0.0100    0.0100    0.0100    0.0100    0.0100    0.0100    0.0100    0.0100
    0.0100    0.0100    0.0100    0.0100    0.0100    0.0100    0.0100    0.0100
    0.0100    0.0100    0.0100    0.0100    0.0100    0.0100    0.0100    0.0100
    0.0100    0.0100    0.0100    0.0100    0.0100    0.0100    0.0100    0.0100
    0.0100    0.0100    0.0100    0.0100    0.0100    0.0100    0.0100    0.0100
    0.0100    0.0100    0.0100    0.0100    0.0100    0.0100    0.0100    0.0100
    0.0100    0.0100    0.0100    0.0100    0.0100    0.0100    0.0100    0.0100
    0.0100    0.0100    0.0100    0.0100    0.0100    0.0100    0.0100    0.0100
    0.0100    0.0100    0.0100    0.0100    0.0100    0.0100    0.0100    0.0100
    0.0100    0.0100    0.0100    0.0100    0.0100    0.0100    0.0100    0.0100
    0.0100    0.0100    0.0100    0.0100    0.0100    0.0100    0.0100    0.0100
    0.0100    0.0100    0.0100    0.0100    0.0100    0.0100    0.0100    0.0100
    0.0100    0.0100    0.0100    0.0100    0.0100    0.0100    0.0100    0.0100
    0.0100    0.0100    0.0100    0.0100    0.0100    0.0100    0.0100    0.0100
    0.0100    0.0100    0.0100    0.0100    0.0100    0.0100    0.0100    0.0100
    0.0100    0.0100    0.0100    0.0100    0.0100    0.0100    0.0100    0.0100
    0.0100    0.0100    0.0100    0.0100    0.0100    0.0100    0.0100    0.0100
    0.0100    0.0100    0.0100    0.0100    0.0100    0.0100    0.0100    0.0100
    0.0100    0.0100    0.0100    0.0100    0.0100    0.0100    0.0100    0.0100
    0.0100    0.0100    0.0100    0.0100    0.0100    0.0100
   </PP_RAB>
 </PP_MESH>
  <PP_LOCAL type="real"  size=" 934" columns="4">
   -2.1559619754E+01   -2.1558880480E+01   -2.1556662517E+01   -2.1552970078E+01
   -2.1547809348E+01   -2.1541188867E+01   -2.1533119402E+01   -2.1523613807E+01
   -2.1512686839E+01   -2.1500354967E+01   -2.1486636156E+01   -2.1471549637E+01
   -2.1455115673E+01   -2.1437355320E+01   -2.1418290181E+01   -2.1397942177E+01
   -2.1376333311E+01   -2.1353485460E+01   -2.1329420161E+01   -2.1304158428E+01
   -2.1277720579E+01   -2.1250126084E+01   -2.1221393424E+01   -2.1191539983E+01
   -2.1160581938E+01   -2.1128534189E+01   -2.1095410284E+01   -2.1061222377E+01
   -2.1025981184E+01   -2.0989695969E+01   -2.0952374524E+01   -2.0914023170E+01
   -2.0874646763E+01   -2.0834248706E+01   -2.0792830972E+01   -2.0750394121E+01
   -2.0706937338E+01   -2.0662458460E+01   -2.0616954014E+01   -2.0570419256E+01
   -2.0522848213E+01   -2.0474233728E+01   -2.0424567506E+01   -2.0373840166E+01
   -2.0322041294E+01   -2.0269159497E+01   -2.0215182465E+01   -2.0160097031E+01
   -2.0103889237E+01   -2.0046544402E+01   -1.9988047188E+01   -1.9928381673E+01
   -1.9867531421E+01   -1.9805479555E+01   -1.9742208826E+01   -1.9677701683E+01
   -1.9611940341E+01   -1.9544906852E+01   -1.9476583165E+01   -1.9406951203E+01
   -1.9335992932E+01   -1.9263690445E+01   -1.9190026060E+01   -1.9114982428E+01
   -1.9038542683E+01   -1.8960690608E+01   -1.8881410857E+01   -1.8800689218E+01
   -1.8718512930E+01   -1.8634871059E+01   -1.8549754934E+01   -1.8463158633E+01
   -1.8375079517E+01   -1.8285518793E+01   -1.8194482092E+01   -1.8101980031E+01
   -1.8008028735E+01   -1.7912650282E+01   -1.7815873051E+01   -1.7717731929E+01
   -1.7618268362E+01   -1.7517530230E+01   -1.7415571541E+01   -1.7312451940E+01
   -1.7208236061E+01   -1.7102992739E+01   -1.6996794120E+01   -1.6889714712E+01
   -1.6781830422E+01   -1.6673217621E+01   -1.6563952283E+01   -1.6454109229E+01
   -1.6343761492E+01   -1.6232979835E+01   -1.6121832407E+01   -1.6010384553E+01
   -1.5898698736E+01   -1.5786834593E+01   -1.5674849059E+01   -1.5562796576E+01
   -1.5450729342E+01   -1.5338697574E+01   -1.5226749801E+01   -1.5114933120E+01
   -1.5003293461E+01   -1.4891875797E+01   -1.4780724340E+01   -1.4669882689E+01
   -1.4559393938E+01   -1.4449300753E+01   -1.4339645403E+01   -1.4230469766E+01
   -1.4121815292E+01   -1.4013722952E+01   -1.3906233150E+01   -1.3799385630E+01
   -1.3693219353E+01   -1.3587772381E+01   -1.3483081737E+01   -1.3379183277E+01
   -1.3276111551E+01   -1.3173899682E+01   -1.3072579238E+01   -1.2972180120E+01
   -1.2872730462E+01   -1.2774256540E+01   -1.2676782695E+01   -1.2580331269E+01
   -1.2484922556E+01   -1.2390574761E+01   -1.2297303979E+01   -1.2205124178E+01
   -1.2114047199E+01   -1.2024082757E+01   -1.1935238462E+01   -1.1847519835E+01
   -1.1760930336E+01   -1.1675471399E+01   -1.1591142463E+01   -1.1507941009E+01
   -1.1425862604E+01   -1.1344900935E+01   -1.1265047852E+01   -1.1186293402E+01
   -1.1108625871E+01   -1.1032031818E+01   -1.0956496102E+01   -1.0882001923E+01
   -1.0808530835E+01   -1.0736062748E+01   -1.0664575970E+01   -1.0594047305E+01
   -1.0524452613E+01   -1.0455768017E+01   -1.0387970357E+01   -1.0321036947E+01
   -1.0254948208E+01   -1.0189698138E+01   -1.0125285877E+01   -1.0061693420E+01
   -9.9989010153E+00   -9.9368937139E+00   -9.8756547506E+00   -9.8151685532E+00
   -9.7554198993E+00   -9.6963940785E+00   -9.6380768590E+00   -9.5804544797E+00
   -9.5235136385E+00   -9.4672414798E+00   -9.4116255805E+00   -9.3566539356E+00
   -9.3023149428E+00   -9.2485973861E+00   -9.1954904198E+00   -9.1429835510E+00
   -9.0910666228E+00   -9.0397297967E+00   -8.9889635352E+00   -8.9387585849E+00
   -8.8891059589E+00   -8.8399969207E+00   -8.7914229677E+00   -8.7433758154E+00
   -8.6958473825E+00   -8.6488297768E+00   -8.6023152811E+00   -8.5562963410E+00
   -8.5107655528E+00   -8.4657156529E+00   -8.4211395077E+00   -8.3770301051E+00
   -8.3333805459E+00   -8.2901840378E+00   -8.2474338889E+00   -8.2051235028E+00
   -8.1632463749E+00   -8.1217960888E+00   -8.0807663142E+00   -8.0401508054E+00
   -7.9999434001E+00   -7.9601380194E+00   -7.9207286681E+00   -7.8817094347E+00
   -7.8430744936E+00   -7.8048181058E+00   -7.7669346206E+00   -7.7294184772E+00
   -7.6922642070E+00   -7.6554664349E+00   -7.6190198812E+00   -7.5829193631E+00
   -7.5471597961E+00   -7.5117361951E+00   -7.4766436752E+00   -7.4418774523E+00
   -7.4074328431E+00   -7.3733052652E+00   -7.3394902362E+00   -7.3059833728E+00
   -7.2727803898E+00   -7.2398770982E+00   -7.2072694030E+00   -7.1749533016E+00
   -7.1429248802E+00   -7.1111803120E+00   -7.0797158535E+00   -7.0485278414E+00
   -7.0176126895E+00   -6.9869668851E+00   -6.9565869856E+00   -6.9264696150E+00
   -6.8966114607E+00   -6.8670092698E+00   -6.8376598463E+00   -6.8085600479E+00
   -6.7797067828E+00   -6.7510970078E+00   -6.7227277251E+00   -6.6945959807E+00
   -6.6666988620E+00   -6.6390334964E+00   -6.6115970500E+00   -6.5843867262E+00
   -6.5573997648E+00   -6.5306334415E+00   -6.5040850675E+00   -6.4777519889E+00
   -6.4516315870E+00   -6.4257212781E+00   -6.4000185139E+00   -6.3745207817E+00
   -6.3492256045E+00   -6.3241305421E+00   -6.2992331905E+00   -6.2745311833E+00
   -6.2500221911E+00   -6.2257039225E+00   -6.2015741239E+00   -6.1776305798E+00
   -6.1538711126E+00   -6.1302935825E+00   -6.1068958875E+00   -6.0836759624E+00
   -6.0606317788E+00   -6.0377613445E+00   -6.0150627020E+00   -5.9925339286E+00
   -5.9701731346E+00   -5.9479784626E+00   -5.9259480863E+00   -5.9040802094E+00
   -5.8823730642E+00   -5.8608249107E+00   -5.8394340235E+00   -5.8181987399E+00
   -5.7971174754E+00   -5.7761882004E+00   -5.7554093949E+00   -5.7347810520E+00
   -5.7143016846E+00   -5.6939681837E+00   -5.6737778608E+00   -5.6537288929E+00
   -5.6338208842E+00   -5.6140529411E+00   -5.5944232393E+00   -5.5749302726E+00
   -5.5555726883E+00   -5.5363490689E+00   -5.5172580270E+00   -5.4982981965E+00
   -5.4794682292E+00   -5.4607667955E+00   -5.4421925840E+00   -5.4237443008E+00
   -5.4054206696E+00   -5.3872204314E+00   -5.3691423440E+00   -5.3511851818E+00
   -5.3333477355E+00   -5.3156288121E+00   -5.2980272340E+00   -5.2805418397E+00
   -5.2631714824E+00   -5.2459150307E+00   -5.2287713678E+00   -5.2117393918E+00
   -5.1948180146E+00   -5.1780061626E+00   -5.1613027757E+00   -5.1447068079E+00
   -5.1282172261E+00   -5.1118330108E+00   -5.0955531552E+00   -5.0793766655E+00
   -5.0633025603E+00   -5.0473298708E+00   -5.0314576402E+00   -5.0156849237E+00
   -5.0000107884E+00   -4.9844343130E+00   -4.9689545877E+00   -4.9535707137E+00
   -4.9382818037E+00   -4.9230869811E+00   -4.9079853799E+00   -4.8929761451E+00
   -4.8780584316E+00   -4.8632314051E+00   -4.8484942411E+00   -4.8338461252E+00
   -4.8192862526E+00   -4.8048138284E+00   -4.7904280672E+00   -4.7761281928E+00
   -4.7619134384E+00   -4.7477830463E+00   -4.7337362676E+00   -4.7197723625E+00
   -4.7058905996E+00   -4.6920902564E+00   -4.6783706186E+00   -4.6647309803E+00
   -4.6511706438E+00   -4.6376889196E+00   -4.6242851261E+00   -4.6109585894E+00
   -4.5977086436E+00   -4.5845346302E+00   -4.5714358985E+00   -4.5584118050E+00
   -4.5454617135E+00   -4.5325849951E+00   -4.5197810280E+00   -4.5070491974E+00
   -4.4943888954E+00   -4.4817995209E+00   -4.4692804795E+00   -4.4568311834E+00
   -4.4444510515E+00   -4.4321395089E+00   -4.4198959872E+00   -4.4077199242E+00
   -4.3956107640E+00   -4.3835679566E+00   -4.3715909582E+00   -4.3596792307E+00
   -4.3478322421E+00   -4.3360494660E+00   -4.3243303817E+00   -4.3126744743E+00
   -4.3010812341E+00   -4.2895501572E+00   -4.2780807449E+00   -4.2666725039E+00
   -4.2553249460E+00   -4.2440375884E+00   -4.2328099532E+00   -4.2216415678E+00
   -4.2105319642E+00   -4.1994806798E+00   -4.1884872564E+00   -4.1775512407E+00
   -4.1666721844E+00   -4.1558496435E+00   -4.1450831787E+00   -4.1343723554E+00
   -4.1237167433E+00   -4.1131159166E+00   -4.1025694538E+00   -4.0920769379E+00
   -4.0816379559E+00   -4.0712520991E+00   -4.0609189631E+00   -4.0506381474E+00
   -4.0404092557E+00   -4.0302318955E+00   -4.0201056783E+00   -4.0100302197E+00
   -4.0000051390E+00   -3.9900300591E+00   -3.9801046071E+00   -3.9702284133E+00
   -3.9604011120E+00   -3.9506223411E+00   -3.9408917419E+00   -3.9312089593E+00
   -3.9215736417E+00   -3.9119854410E+00   -3.9024440123E+00   -3.8929490143E+00
   -3.8835001089E+00   -3.8740969612E+00   -3.8647392396E+00   -3.8554266157E+00
   -3.8461587643E+00   -3.8369353634E+00   -3.8277560937E+00   -3.8186206395E+00
   -3.8095286875E+00   -3.8004799280E+00   -3.7914740538E+00   -3.7825107607E+00