<UPF version="2.0.1">
  <PP_INFO>

 This pseudopotential file has been produced using the code
 ONCVPSP  (Optimized Norm-Conservinng Vanderbilt PSeudopotential)
 fully-relativistic version 4.0.1 06/04/2019 by D. R. Hamann
 The code is available through a link at URL www.mat-simresearch.com.
 Documentation with the package provides a full discription of the
 input data below.


 While it is not required under the terms of the GNU GPL, it is
 suggested that you cite D. R. Hamann, Phys. Rev. B 88, 085117 (2013)
 in any publication using these pseudopotentials.

    <PP_INPUTFILE>
# ATOM AND REFERENCE CONFIGURATION
# atsym  z   nc   nv     iexc    psfile
  F  9.00    1    2       4      upf
#
#   n    l    f        energy (Ha)
    1    0    2.00
    2    0    2.00
    2    1    5.00
#
# PSEUDOPOTENTIAL AND OPTIMIZATION
# lmax
    2
#
#   l,   rc,     ep,   ncon, nbas, qcut
    0   1.30000  -1.10000    4    8   8.60000
    1   1.45000  -0.41000    4    8   9.00000
    2   1.60000   0.15000    4    8   5.80000
#
# LOCAL POTENTIAL
# lloc, lpopt,  rc(5),   dvloc0
    4    5   0.95000      0.00000
#
# VANDERBILT-KLEINMAN-BYLANDER PROJECTORs
# l, nproj, debl
    0    2   1.50000
    1    2   1.50000
    2    1   2.00000
#
# MODEL CORE CHARGE
# icmod, fcfact, rcfact
    3   2.50000   1.85000
#
# LOG DERIVATIVE ANALYSIS
# epsh1, epsh2, depsh
  -12.00   12.00    0.02
#
# OUTPUT GRID
# rlmax, drl
    6.00    0.01
#
# TEST CONFIGURATIONS
# ncnf
    0
# nvcnf
#   n    l    f
    </PP_INPUTFILE>
  </PP_INFO>
  <!--                               -->
  <!-- END OF HUMAN READABLE SECTION -->
  <!--                               -->
    <PP_HEADER
       generated="Generated using ONCVPSP code by D. R. Hamann"
       author="anonymous"
       date="220414"
       comment=""
       element="F "
       pseudo_type="NC"
       relativistic="full"
       is_ultrasoft="F"
       is_paw="F"
       is_coulomb="F"
       has_so="T"
       has_wfc="F"
       has_gipaw="F"
       core_correction="T"
       functional="PBE"
       z_valence="    7.00"
       total_psenergy="  -4.77414752904E+01"
       rho_cutoff="   8.31000000000E+00"
       l_max="2"
       l_local="-1"
       mesh_size="   832"
       number_of_wfc="3"
       number_of_proj="8"/>
 <PP_MESH>
   <PP_R type="real"  size=" 832" columns="8">
    0.0000    0.0100    0.0200    0.0300    0.0400    0.0500    0.0600    0.0700
    0.0800    0.0900    0.1000    0.1100    0.1200    0.1300    0.1400    0.1500
    0.1600    0.1700    0.1800    0.1900    0.2000    0.2100    0.2200    0.2300
    0.2400    0.2500    0.2600    0.2700    0.2800    0.2900    0.3000    0.3100
    0.3200    0.3300    0.3400    0.3500    0.3600    0.3700    0.3800    0.3900
    0.4000    0.4100    0.4200    0.4300    0.4400    0.4500    0.4600    0.4700
    0.4800    0.4900    0.5000    0.5100    0.5200    0.5300    0.5400    0.5500
    0.5600    0.5700    0.5800    0.5900    0.6000    0.6100    0.6200    0.6300
    0.6400    0.6500    0.6600    0.6700    0.6800    0.6900    0.7000    0.7100
    0.7200    0.7300    0.7400    0.7500    0.7600    0.7700    0.7800    0.7900
    0.8000    0.8100    0.8200    0.8300    0.8400    0.8500    0.8600    0.8700
    0.8800    0.8900    0.9000    0.9100    0.9200    0.9300    0.9400    0.9500
    0.9600    0.9700    0.9800    0.9900    1.0000    1.0100    1.0200    1.0300
    1.0400    1.0500    1.0600    1.0700    1.0800    1.0900    1.1000    1.1100
    1.1200    1.1300    1.1400    1.1500    1.1600    1.1700    1.1800    1.1900
    1.2000    1.2100    1.2200    1.2300    1.2400    1.2500    1.2600    1.2700
    1.2800    1.2900    1.3000    1.3100    1.3200    1.3300    1.3400    1.3500
    1.3600    1.3700    1.3800    1.3900    1.4000    1.4100    1.4200    1.4300
    1.4400    1.4500    1.4600    1.4700    1.4800    1.4900    1.5000    1.5100
    1.5200    1.5300    1.5400    1.5500    1.5600    1.5700    1.5800    1.5900
    1.6000    1.6100    1.6200    1.6300    1.6400    1.6500    1.6600    1.6700
    1.6800    1.6900    1.7000    1.7100    1.7200    1.7300    1.7400    1.7500
    1.7600    1.7700    1.7800    1.7900    1.8000    1.8100    1.8200    1.8300
    1.8400    1.8500    1.8600    1.8700    1.8800    1.8900    1.9000    1.9100
    1.9200    1.9300    1.9400    1.9500    1.9600    1.9700    1.9800    1.9900
    2.0000    2.0100    2.0200    2.0300    2.0400    2.0500    2.0600    2.0700
    2.0800    2.0900    2.1000    2.1100    2.1200    2.1300    2.1400    2.1500
    2.1600    2.1700    2.1800    2.1900    2.2000    2.2100    2.2200    2.2300
    2.2400    2.2500    2.2600    2.2700    2.2800    2.2900    2.3000    2.3100
    2.3200    2.3300    2.3400    2.3500    2.3600    2.3700    2.3800    2.3900
    2.4000    2.4100    2.4200    2.4300    2.4400    2.4500    2.4600    2.4700
    2.4800    2.4900    2.5000    2.5100    2.5200    2.5300    2.5400    2.5500
    2.5600    2.5700    2.5800    2.5900    2.6000    2.6100    2.6200    2.6300
    2.6400    2.6500    2.6600    2.6700    2.6800    2.6900    2.7000    2.7100
    2.7200    2.7300    2.7400    2.7500    2.7600    2.7700    2.7800    2.7900
    2.8000    2.8100    2.8200    2.8300    2.8400    2.8500    2.8600    2.8700
    2.8800    2.8900    2.9000    2.9100    2.9200    2.9300    2.9400    2.9500
    2.9600    2.9700    2.9800    2.9900    3.0000    3.0100    3.0200    3.0300
    3.0400    3.0500    3.0600    3.0700    3.0800    3.0900    3.1000    3.1100
    3.1200    3.1300    3.1400    3.1500    3.1600    3.1700    3.1800    3.1900
    3.2000    3.2100    3.2200    3.2300    3.2400    3.2500    3.2600    3.2700
    3.2800    3.2900    3.3000    3.3100    3.3200    3.3300    3.3400    3.3500
    3.3600    3.3700    3.3800    3.3900    3.4000    3.4100    3.4200    3.4300
    3.4400    3.4500    3.4600    3.4700    3.4800    3.4900    3.5000    3.5100
    3.5200    3.5300    3.5400    3.5500    3.5600    3.5700    3.5800    3.5900
    3.6000    3.6100    3.6200    3.6300    3.6400    3.6500    3.6600    3.6700
    3.6800    3.6900    3.7000    3.7100    3.7200    3.7300    3.7400    3.7500
    3.7600    3.7700    3.7800    3.7900    3.8000    3.8100    3.8200    3.8300
    3.8400    3.8500    3.8600    3.8700    3.8800    3.8900    3.9000    3.9100
    3.9200    3.9300    3.9400    3.9500    3.9600    3.9700    3.9800    3.9900
    4.0000    4.0100    4.0200    4.0300    4.0400    4.0500    4.0600    4.0700
    4.0800    4.0900    4.1000    4.1100    4.1200    4.1300    4.1400    4.1500
    4.1600    4.1700    4.1800    4.1900    4.2000    4.2100    4.2200    4.2300
    4.2400    4.2500    4.2600    4.2700    4.2800    4.2900    4.3000    4.3100
    4.3200    4.3300    4.3400    4.3500    4.3600    4.3700    4.3800    4.3900
    4.4000    4.4100    4.4200    4.4300    4.4400    4.4500    4.4600    4.4700
    4.4800    4.4900    4.5000    4.5100    4.5200    4.5300    4.5400    4.5500
    4.5600    4.5700    4.5800    4.5900    4.6000    4.6100    4.6200    4.6300
    4.6400    4.6500    4.6600    4.6700    4.6800    4.6900    4.7000    4.7100
    4.7200    4.7300    4.7400    4.7500    4.7600    4.7700    4.7800    4.7900
    4.8000    4.8100    4.8200    4.8300    4.8400    4.8500    4.8600    4.8700
    4.8800    4.8900    4.9000    4.9100    4.9200    4.9300    4.9400    4.9500
    4.9600    4.9700    4.9800    4.9900    5.0000    5.0100    5.0200    5.0300
    5.0400    5.0500    5.0600    5.0700    5.0800    5.0900    5.1000    5.1100
    5.1200    5.1300    5.1400    5.1500    5.1600    5.1700    5.1800    5.1900
    5.2000    5.2100    5.2200    5.2300    5.2400    5.2500    5.2600    5.2700
    5.2800    5.2900    5.3000    5.3100    5.3200    5.3300    5.3400    5.3500
    5.3600    5.3700    5.3800    5.3900    5.4000    5.4100    5.4200    5.4300
    5.4400    5.4500    5.4600    5.4700    5.4800    5.4900    5.5000    5.5100
    5.5200    5.5300    5.5400    5.5500    5.5600    5.5700    5.5800    5.5900
    5.6000    5.6100    5.6200    5.6300    5.6400    5.6500    5.6600    5.6700
    5.6800    5.6900    5.7000    5.7100    5.7200    5.7300    5.7400    5.7500
    5.7600    5.7700    5.7800    5.7900    5.8000    5.8100    5.8200    5.8300
    5.8400    5.8500    5.8600    5.8700    5.8800    5.8900    5.9000    5.9100
    5.9200    5.9300    5.9400    5.9500    5.9600    5.9700    5.9800    5.9900
    6.0000    6.0100    6.0200    6.0300    6.0400    6.0500    6.0600    6.0700
    6.0800    6.0900    6.1000    6.1100    6.1200    6.1300    6.1400    6.1500
    6.1600    6.1700    6.1800    6.1900    6.2000    6.2100    6.2200    6.2300
    6.2400    6.2500    6.2600    6.2700    6.2800    6.2900    6.3000    6.3100
    6.3200    6.3300    6.3400    6.3500    6.3600    6.3700    6.3800    6.3900
    6.4000    6.4100    6.4200    6.4300    6.4400    6.4500    6.4600    6.4700
    6.4800    6.4900    6.5000    6.5100    6.5200    6.5300    6.5400    6.5500
    6.5600    6.5700    6.5800    6.5900    6.6000    6.6100    6.6200    6.6300
    6.6400    6.6500    6.6600    6.6700    6.6800    6.6900    6.7000    6.7100
    6.7200    6.7300    6.7400    6.7500    6.7600    6.7700    6.7800    6.7900
    6.8000    6.8100    6.8200    6.8300    6.8400    6.8500    6.8600    6.8700
    6.8800    6.8900    6.9000    6.9100    6.9200    6.9300    6.9400    6.9500
    6.9600    6.9700    6.9800    6.9900    7.0000    7.0100    7.0200    7.0300
    7.0400    7.0500    7.0600    7.0700    7.0800    7.0900    7.1000    7.1100
    7.1200    7.1300    7.1400    7.1500    7.1600    7.1700    7.1800    7.1900
    7.2000    7.2100    7.2200    7.2300    7.2400    7.2500    7.2600    7.2700
    7.2800    7.2900    7.3000    7.3100    7.3200    7.3300    7.3400    7.3500
    7.3600    7.3700    7.3800    7.3900    7.4000    7.4100    7.4200    7.4300
    7.4400    7.4500    7.4600    7.4700    7.4800    7.4900    7.5000    7.5100
    7.5200    7.5300    7.5400    7.5500    7.5600    7.5700    7.5800    7.5900
    7.6000    7.6100    7.6200    7.6300    7.6400    7.6500    7.6600    7.6700
    7.6800    7.6900    7.7000    7.7100    7.7200    7.7300    7.7400    7.7500
    7.7600    7.7700    7.7800    7.7900    7.8000    7.8100    7.8200    7.8300
    7.8400    7.8500    7.8600    7.8700    7.8800    7.8900    7.9000    7.9100
    7.9200    7.9300    7.9400    7.9500    7.9600    7.9700    7.9800    7.9900
    8.0000    8.0100    8.0200    8.0300    8.0400    8.0500    8.0600    8.0700
    8.0800    8.0900    8.1000    8.1100    8.1200    8.1300    8.1400    8.1500
    8.1600    8.1700    8.1800    8.1900    8.2000    8.2100    8.2200    8.2300
    8.2400    8.2500    8.2600    8.2700    8.2800    8.2900    8.3000    8.3100
   </PP_R>
   <PP_RAB type="real"  size=" 832" columns="8">
    0.0100    0.0100    0.0100    0.0100    0.0100    0.0100    0.0100    0.0100
    0.0100    0.0100    0.0100    0.0100    0.0100    0.0100    0.0100    0.0100
    0.0100    0.0100    0.0100    0.0100    0.0100    0.0100    0.0100    0.0100
    0.0100    0.0100    0.0100    0.0100    0.0100    0.0100    0.0100    0.0100
    0.0100    0.0100    0.0100    0.0100    0.0100    0.0100    0.0100    0.0100
    0.0100    0.0100    0.0100    0.0100    0.0100    0.0100    0.0100    0.0100
    0.0100    0.0100    0.0100    0.0100    0.0100    0.0100    0.0100    0.0100
    0.0100    0.0100    0.0100    0.0100    0.0100    0.0100    0.0100    0.0100
    0.0100    0.0100    0.0100    0.0100    0.0100    0.0100    0.0100    0.0100
    0.0100    0.0100    0.0100    0.0100    0.0100    0.0100    0.0100    0.0100
    0.0100    0.0100    0.0100    0.0100    0.0100    0.0100    0.0100    0.0100
    0.0100    0.0100    0.0100    0.0100    0.0100    0.0100    0.0100    0.0100
    0.0100    0.0100    0.0100    0.0100    0.0100    0.0100    0.0100    0.0100
    0.0100    0.0100    0.0100    0.0100    0.0100    0.0100    0.0100    0.0100
    0.0100    0.0100    0.0100    0.0100    0.0100    0.0100    0.0100    0.0100
    0.0100    0.0100    0.0100    0.0100    0.0100    0.0100    0.0100    0.0100
    0.0100    0.0100    0.0100    0.0100    0.0100    0.0100    0.0100    0.0100
    0.0100    0.0100    0.0100    0.0100    0.0100    0.0100    0.0100    0.0100
    0.0100    0.0100    0.0100    0.0100    0.0100    0.0100    0.0100    0.0100
    0.0100    0.0100    0.0100    0.0100    0.0100    0.0100    0.0100    0.0100
    0.0100    0.0100    0.0100    0.0100    0.0100    0.0100    0.0100    0.0100
    0.0100    0.0100    0.0100    0.0100    0.0100    0.0100    0.0100    0.0100
    0.0100    0.0100    0.0100    0.0100    0.0100    0.0100    0.0100    0.0100
    0.0100    0.0100    0.0100    0.0100    0.0100    0.0100    0.0100    0.0100
    0.0100    0.0100    0.0100    0.0100    0.0100    0.0100    0.0100    0.0100
    0.0100    0.0100    0.0100    0.0100    0.0100    0.0100    0.0100    0.0100
    0.0100    0.0100    0.0100    0.0100    0.0100    0.0100    0.0100    0.0100
    0.0100    0.0100    0.0100    0.0100    0.0100    0.0100    0.0100    0.0100
    0.0100    0.0100    0.0100    0.0100    0.0100    0.0100    0.0100    0.0100
    0.0100    0.0100    0.0100    0.0100    0.0100    0.0100    0.0100    0.0100
    0.0100    0.0100    0.0100    0.0100    0.0100    0.0100    0.0100    0.0100
    0.0100    0.0100    0.0100    0.0100    0.0100    0.0100    0.0100    0.0100
    0.0100    0.0100    0.0100    0.0100    0.0100    0.0100    0.0100    0.0100
    0.0100    0.0100    0.0100    0.0100    0.0100    0.0100    0.0100    0.0100
    0.0100    0.0100    0.0100    0.0100    0.0100    0.0100    0.0100    0.0100
    0.0100    0.0100    0.0100    0.0100    0.0100    0.0100    0.0100    0.0100
    0.0100    0.0100    0.0100    0.0100    0.0100    0.0100    0.0100    0.0100
    0.0100    0.0100    0.0100    0.0100    0.0100    0.0100    0.0100    0.0100
    0.0100    0.0100    0.0100    0.0100    0.0100    0.0100    0.0100    0.0100
    0.0100    0.0100    0.0100    0.0100    0.0100    0.0100    0.0100    0.0100
    0.0100    0.0100    0.0100    0.0100    0.0100    0.0100    0.0100    0.0100
    0.0100    0.0100    0.0100    0.0100    0.0100    0.0100    0.0100    0.0100
    0.0100    0.0100    0.0100    0.0100    0.0100    0.0100    0.0100    0.0100
    0.0100    0.0100    0.0100    0.0100    0.0100    0.0100    0.0100    0.0100
    0.0100    0.0100    0.0100    0.0100    0.0100    0.0100    0.0100    0.0100
    0.0100    0.0100    0.0100    0.0100    0.0100    0.0100    0.0100    0.0100
    0.0100    0.0100    0.0100    0.0100    0.0100    0.0100    0.0100    0.0100
    0.0100    0.0100    0.0100    0.0100    0.0100    0.0100    0.0100    0.0100
    0.0100    0.0100    0.0100    0.0100    0.0100    0.0100    0.0100    0.0100
    0.0100    0.0100    0.0100    0.0100    0.0100    0.0100    0.0100    0.0100
    0.0100    0.0100    0.0100    0.0100    0.0100    0.0100    0.0100    0.0100
    0.0100    0.0100    0.0100    0.0100    0.0100    0.0100    0.0100    0.0100
    0.0100    0.0100    0.0100    0.0100    0.0100    0.0100    0.0100    0.0100
    0.0100    0.0100    0.0100    0.0100    0.0100    0.0100    0.0100    0.0100
    0.0100    0.0100    0.0100    0.0100    0.0100    0.0100    0.0100    0.0100
    0.0100    0.0100    0.0100    0.0100    0.0100    0.0100    0.0100    0.0100
    0.0100    0.0100    0.0100    0.0100    0.0100    0.0100    0.0100    0.0100
    0.0100    0.0100    0.0100    0.0100    0.0100    0.0100    0.0100    0.0100
    0.0100    0.0100    0.0100    0.0100    0.0100    0.0100    0.0100    0.0100
    0.0100    0.0100    0.0100    0.0100    0.0100    0.0100    0.0100    0.0100
    0.0100    0.0100    0.0100    0.0100    0.0100    0.0100    0.0100    0.0100
    0.0100    0.0100    0.0100    0.0100    0.0100    0.0100    0.0100    0.0100
    0.0100    0.0100    0.0100    0.0100    0.0100    0.0100    0.0100    0.0100
    0.0100    0.0100    0.0100    0.0100    0.0100    0.0100    0.0100    0.0100
    0.0100    0.0100    0.0100    0.0100    0.0100    0.0100    0.0100    0.0100
    0.0100    0.0100    0.0100    0.0100    0.0100    0.0100    0.0100    0.0100
    0.0100    0.0100    0.0100    0.0100    0.0100    0.0100    0.0100    0.0100
    0.0100    0.0100    0.0100    0.0100    0.0100    0.0100    0.0100    0.0100
    0.0100    0.0100    0.0100    0.0100    0.0100    0.0100    0.0100    0.0100
    0.0100    0.0100    0.0100    0.0100    0.0100    0.0100    0.0100    0.0100
    0.0100    0.0100    0.0100    0.0100    0.0100    0.0100    0.0100    0.0100
    0.0100    0.0100    0.0100    0.0100    0.0100    0.0100    0.0100    0.0100
    0.0100    0.0100    0.0100    0.0100    0.0100    0.0100    0.0100    0.0100
    0.0100    0.0100    0.0100    0.0100    0.0100    0.0100    0.0100    0.0100
    0.0100    0.0100    0.0100    0.0100    0.0100    0.0100    0.0100    0.0100
    0.0100    0.0100    0.0100    0.0100    0.0100    0.0100    0.0100    0.0100
    0.0100    0.0100    0.0100    0.0100    0.0100    0.0100    0.0100    0.0100
    0.0100    0.0100    0.0100    0.0100    0.0100    0.0100    0.0100    0.0100
    0.0100    0.0100    0.0100    0.0100    0.0100    0.0100    0.0100    0.0100
    0.0100    0.0100    0.0100    0.0100    0.0100    0.0100    0.0100    0.0100
    0.0100    0.0100    0.0100    0.0100    0.0100    0.0100    0.0100    0.0100
    0.0100    0.0100    0.0100    0.0100    0.0100    0.0100    0.0100    0.0100
    0.0100    0.0100    0.0100    0.0100    0.0100    0.0100    0.0100    0.0100
    0.0100    0.0100    0.0100    0.0100    0.0100    0.0100    0.0100    0.0100
    0.0100    0.0100    0.0100    0.0100    0.0100    0.0100    0.0100    0.0100
    0.0100    0.0100    0.0100    0.0100    0.0100    0.0100    0.0100    0.0100
    0.0100    0.0100    0.0100    0.0100    0.0100    0.0100    0.0100    0.0100
    0.0100    0.0100    0.0100    0.0100    0.0100    0.0100    0.0100    0.0100
    0.0100    0.0100    0.0100    0.0100    0.0100    0.0100    0.0100    0.0100
    0.0100    0.0100    0.0100    0.0100    0.0100    0.0100    0.0100    0.0100
    0.0100    0.0100    0.0100    0.0100    0.0100    0.0100    0.0100    0.0100
    0.0100    0.0100    0.0100    0.0100    0.0100    0.0100    0.0100    0.0100
    0.0100    0.0100    0.0100    0.0100    0.0100    0.0100    0.0100    0.0100
    0.0100    0.0100    0.0100    0.0100    0.0100    0.0100    0.0100    0.0100
    0.0100    0.0100    0.0100    0.0100    0.0100    0.0100    0.0100    0.0100
    0.0100    0.0100    0.0100    0.0100    0.0100    0.0100    0.0100    0.0100
    0.0100    0.0100    0.0100    0.0100    0.0100    0.0100    0.0100    0.0100
    0.0100    0.0100    0.0100    0.0100    0.0100    0.0100    0.0100    0.0100
    0.0100    0.0100    0.0100    0.0100    0.0100    0.0100    0.0100    0.0100
    0.0100    0.0100    0.0100    0.0100    0.0100    0.0100    0.0100    0.0100
    0.0100    0.0100    0.0100    0.0100    0.0100    0.0100    0.0100    0.0100
    0.0100    0.0100    0.0100    0.0100    0.0100    0.0100    0.0100    0.0100
    0.0100    0.0100    0.0100    0.0100    0.0100    0.0100    0.0100    0.0100
    0.0100    0.0100    0.0100    0.0100    0.0100    0.0100    0.0100    0.0100
   </PP_RAB>
 </PP_MESH>
  <PP_LOCAL type="real"  size=" 832" columns="4">
   -3.0694127835E+01   -3.0691210817E+01   -3.0682465015E+01   -3.0667906120E+01
   -3.0647559683E+01   -3.0621460299E+01   -3.0589650498E+01   -3.0552179456E+01
   -3.0509101553E+01   -3.0460474891E+01   -3.0406359816E+01   -3.0346817518E+01
   -3.0281908768E+01   -3.0211692827E+01   -3.0136226559E+01   -3.0055563762E+01
   -2.9969754725E+01   -2.9878845998E+01   -2.9782880368E+01   -2.9681897011E+01
   -2.9575931814E+01   -2.9465017815E+01   -2.9349185767E+01   -2.9228464771E+01
   -2.9102882979E+01   -2.8972468337E+01   -2.8837249350E+01   -2.8697255854E+01
   -2.8552519793E+01   -2.8403075972E+01   -2.8248962797E+01   -2.8090222980E+01
   -2.7926904214E+01   -2.7759059804E+01   -2.7586749258E+01   -2.7410038825E+01
   -2.7229001980E+01   -2.7043719852E+01   -2.6854281589E+01   -2.6660784659E+01
   -2.6463335075E+01   -2.6262047551E+01   -2.6057045581E+01   -2.5848461438E+01
   -2.5636436096E+01   -2.5421119076E+01   -2.5202668217E+01   -2.4981249371E+01
   -2.4757036048E+01   -2.4530208983E+01   -2.4300955674E+01   -2.4069469863E+01
   -2.3835950992E+01   -2.3600603633E+01   -2.3363636900E+01   -2.3125263851E+01
   -2.2885700878E+01   -2.2645167102E+01   -2.2403883756E+01   -2.2162073571E+01
   -2.1919960159E+01   -2.1677767380E+01   -2.1435718712E+01   -2.1194036602E+01
   -2.0952941807E+01   -2.0712652716E+01   -2.0473384660E+01   -2.0235349216E+01
   -1.9998753484E+01   -1.9763799380E+01   -1.9530682909E+01   -1.9299593460E+01
   -1.9070713104E+01   -1.8844215921E+01   -1.8620267346E+01   -1.8399023562E+01
   -1.8180630918E+01   -1.7965225402E+01   -1.7752932159E+01   -1.7543865059E+01
   -1.7338126314E+01   -1.7135806144E+01   -1.6936982498E+01   -1.6741720812E+01
   -1.6550073812E+01   -1.6362081355E+01   -1.6177770302E+01   -1.5997154421E+01
   -1.5820234304E+01   -1.5646997313E+01   -1.5477417522E+01   -1.5311455678E+01
   -1.5149059154E+01   -1.4990161898E+01   -1.4834684376E+01   -1.4682533500E+01
   -1.4533602634E+01   -1.4387776212E+01   -1.4244940331E+01   -1.4104985396E+01
   -1.3967806140E+01   -1.3833301613E+01   -1.3701375156E+01   -1.3571934359E+01
   -1.3444891003E+01   -1.3320160991E+01   -1.3197664262E+01   -1.3077324690E+01
   -1.2959069983E+01   -1.2842831566E+01   -1.2728544459E+01   -1.2616147155E+01
   -1.2505581495E+01   -1.2396792544E+01   -1.2289728468E+01   -1.2184340416E+01
   -1.2080582404E+01   -1.1978411210E+01   -1.1877786265E+01   -1.1778669561E+01
   -1.1681025549E+01   -1.1584821055E+01   -1.1490025189E+01   -1.1396609258E+01
   -1.1304546664E+01   -1.1213812780E+01   -1.1124384968E+01   -1.1036242482E+01
   -1.0949366247E+01   -1.0863738754E+01   -1.0779344166E+01   -1.0696177092E+01
   -1.0614243802E+01   -1.0533530905E+01   -1.0454025937E+01   -1.0375716127E+01
   -1.0298588671E+01   -1.0222630454E+01   -1.0147827864E+01   -1.0074166604E+01
   -1.0001631503E+01   -9.9302064695E+00   -9.8598743646E+00   -9.7906168444E+00
   -9.7224142506E+00   -9.6552462387E+00   -9.5890848186E+00   -9.5238632178E+00
   -9.4595156958E+00   -9.3960319833E+00   -9.3333929807E+00   -9.2715822754E+00
   -9.2105836193E+00   -9.1503812557E+00   -9.0909598650E+00   -9.0323045414E+00
   -8.9744007693E+00   -8.9172344015E+00   -8.8607916379E+00   -8.8050590074E+00
   -8.7500233517E+00   -8.6956718102E+00   -8.6419918087E+00   -8.5889710488E+00
   -8.5365974997E+00   -8.4848593921E+00   -8.4337452126E+00   -8.3832437004E+00
   -8.3333438438E+00   -8.2840348783E+00   -8.2353062843E+00   -8.1871477849E+00
   -8.1395493441E+00   -8.0925011638E+00   -8.0459936808E+00   -8.0000175632E+00
   -7.9545637055E+00   -7.9096232238E+00   -7.8651874495E+00   -7.8212479231E+00
   -7.7777963870E+00   -7.7348247781E+00   -7.6923252198E+00   -7.6502900149E+00
   -7.6087116437E+00   -7.5675827030E+00   -7.5268961176E+00   -7.4866450322E+00
   -7.4468223108E+00   -7.4074209494E+00   -7.3684343524E+00   -7.3298559936E+00
   -7.2916794953E+00   -7.2538986109E+00   -7.2165072226E+00   -7.1794993382E+00
   -7.1428690875E+00   -7.1066107197E+00   -7.0707186002E+00   -7.0351872077E+00
   -7.0000111311E+00   -6.9651850672E+00   -6.9307038178E+00   -6.8965622869E+00
   -6.8627554787E+00   -6.8292784949E+00   -6.7961265320E+00   -6.7632948796E+00
   -6.7307789178E+00   -6.6985741151E+00   -6.6666760264E+00   -6.6350802908E+00
   -6.6037826297E+00   -6.5727788447E+00   -6.5420648162E+00   -6.5116365010E+00
   -6.4814899308E+00   -6.4516212106E+00   -6.4220265166E+00   -6.3927020951E+00
   -6.3636442605E+00   -6.3348493941E+00   -6.3063139421E+00   -6.2780344146E+00
   -6.2500073841E+00   -6.2222294840E+00   -6.1946974072E+00   -6.1674079049E+00
   -6.1403577856E+00   -6.1135439121E+00   -6.0869632043E+00   -6.0606126354E+00
   -6.0344892258E+00   -6.0085900521E+00   -5.9829122409E+00   -5.9574529652E+00
   -5.9322094470E+00   -5.9071789554E+00   -5.8823588051E+00   -5.8577463558E+00
   -5.8333390113E+00   -5.8091342183E+00   -5.7851294660E+00   -5.7613222846E+00
   -5.7377102451E+00   -5.7142909579E+00   -5.6910620724E+00   -5.6680212759E+00
   -5.6451662933E+00   -5.6224948859E+00   -5.6000048506E+00   -5.5776940197E+00
   -5.5555602598E+00   -5.5336014713E+00   -5.5118155875E+00   -5.4902005743E+00
   -5.4687544293E+00   -5.4474751812E+00   -5.4263608894E+00   -5.4054096433E+00
   -5.3846195614E+00   -5.3639887913E+00   -5.3435155089E+00   -5.3231979177E+00
   -5.3030342485E+00   -5.2830227587E+00   -5.2631617320E+00   -5.2434494779E+00
   -5.2238843310E+00   -5.2044646506E+00   -5.1851888205E+00   -5.1660552482E+00
   -5.1470623647E+00   -5.1282086240E+00   -5.1094925026E+00   -5.0909124991E+00
   -5.0724671340E+00   -5.0541549493E+00   -5.0359745075E+00   -5.0179243922E+00
   -5.0000032070E+00   -4.9822095753E+00   -4.9645421403E+00   -4.9469995642E+00
   -4.9295805280E+00   -4.9122837313E+00   -4.8951078918E+00   -4.8780517452E+00
   -4.8611140447E+00   -4.8442935606E+00   -4.8275890806E+00   -4.8109994085E+00
   -4.7945233649E+00   -4.7781597863E+00   -4.7619075251E+00   -4.7457654493E+00
   -4.7297324421E+00   -4.7138074018E+00   -4.6979892414E+00   -4.6822768887E+00
   -4.6666692855E+00   -4.6511653877E+00   -4.6357641653E+00   -4.6204646015E+00
   -4.6052656932E+00   -4.5901664503E+00   -4.5751658958E+00   -4.5602630651E+00
   -4.5454570065E+00   -4.5307467804E+00   -4.5161314593E+00   -4.5016101279E+00
   -4.4871818822E+00   -4.4728458302E+00   -4.4586010910E+00   -4.4444467950E+00
   -4.4303820834E+00   -4.4164061085E+00   -4.4025180332E+00   -4.3887170307E+00
   -4.3750022848E+00   -4.3613729893E+00   -4.3478283482E+00   -4.3343675750E+00
   -4.3209898933E+00   -4.3076945361E+00   -4.2944807457E+00   -4.2813477739E+00
   -4.2682948814E+00   -4.2553213381E+00   -4.2424264225E+00   -4.2296094220E+00
   -4.2168696326E+00   -4.2042063586E+00   -4.1916189128E+00   -4.1791066161E+00
   -4.1666687976E+00   -4.1543047941E+00   -4.1420139507E+00   -4.1297956197E+00
   -4.1176491615E+00   -4.1055739436E+00   -4.0935693411E+00   -4.0816347365E+00
   -4.0697695193E+00   -4.0579730860E+00   -4.0462448403E+00   -4.0345841927E+00
   -4.0229905604E+00   -4.0114633674E+00   -4.0000020442E+00   -3.9886060277E+00
   -3.9772747614E+00   -3.9660076950E+00   -3.9548042844E+00   -3.9436639917E+00
   -3.9325862850E+00   -3.9215706383E+00   -3.9106165316E+00   -3.8997234507E+00
   -3.8888908869E+00   -3.8781183373E+00   -3.8674053046E+00   -3.8567512970E+00
   -3.8461558279E+00   -3.8356184161E+00   -3.8251385859E+00   -3.8147158665E+00
   -3.8043497924E+00   -3.7940399029E+00   -3.7837857426E+00   -3.7735868608E+00
   -3.7634428117E+00   -3.7533531543E+00   -3.7433174523E+00   -3.7333352740E+00
   -3.7234061925E+00   -3.7135297851E+00   -3.7037056338E+00   -3.6939333249E+00
   -3.6842124493E+00   -3.6745426019E+00   -3.6649233819E+00   -3.6553543929E+00
   -3.6458352423E+00   -3.6363655418E+00   -3.6269449071E+00   -3.6175729578E+00
   -3.6082493175E+00   -3.5989736137E+00   -3.5897454775E+00   -3.5805645441E+00
   -3.5714304521E+00   -3.5623428440E+00   -3.5533013658E+00   -3.5443056673E+00
   -3.5353554015E+00   -3.5264502252E+00   -3.5175897985E+00   -3.5087737849E+00
   -3.5000018514E+00   -3.4912736681E+00   -3.4825889085E+00   -3.4739472495E+00
   -3.4653483709E+00   -3.4567919559E+00   -3.4482776906E+00   -3.4398052644E+00
   -3.4313743697E+00   -3.4229847019E+00   -3.4146359591E+00   -3.4063278429E+00
   -3.3980600572E+00   -3.3898323092E+00   -3.3816443087E+00   -3.3734957684E+00
   -3.3653864038E+00   -3.3573159329E+00   -3.3492840767E+00   -3.3412905586E+00
   -3.3333351049E+00   -3.3254174442E+00   -3.3175373080E+00   -3.3096944300E+00
   -3.3018885467E+00   -3.2941193969E+00   -3.2863867220E+00   -3.2786902656E+00
   -3.2710297739E+00   -3.2634049954E+00   -3.2558156810E+00   -3.2482615837E+00
   -3.2407424591E+00   -3.2332580648E+00   -3.2258081607E+00   -3.2183925090E+00
   -3.2110108741E+00   -3.2036630223E+00   -3.1963487223E+00   -3.1890677448E+00
   -3.1818198626E+00   -3.1746048506E+00   -3.1674224856E+00   -3.1602725467E+00
   -3.1531548146E+00   -3.1460690723E+00   -3.1390151045E+00   -3.1319926981E+00
   -3.1250016417E+00   -3.1180417258E+00   -3.1111127429E+00   -3.1042144871E+00
   -3.0973467545E+00   -3.0905093429E+00   -3.0837020521E+00   -3.0769246834E+00
   -3.0701770400E+00   -3.0634589267E+00   -3.0567701501E+00   -3.0501105185E+00
   -3.0434798417E+00   -3.0368779314E+00   -3.0303046008E+00   -3.0237596647E+00
   -3.0172429394E+00   -3.0107542430E+00   -3.0042933951E+00   -2.9978602167E+00
   -2.9914545305E+00   -2.9850761607E+00   -2.9787249328E+00   -2.9724006740E+00
   -2.9661032129E+00   -2.9598323794E+00   -2.9535880052E+00   -2.9473699230E+00
   -2.9411779672E+00   -2.9350119735E+00   -2.9288717788E+00   -2.9227572217E+00
   -2.9166681419E+00   -2.9106043805E+00   -2.9045657799E+00   -2.8985521838E+00
   -2.8925634372E+00   -2.8865993865E+00   -2.8806598792E+00   -2.8747447641E+00
   -2.8688538912E+00   -2.8629871119E+00   -2.8571442786E+00   -2.8513252449E+00
   -2.8455298659E+00   -2.8397579975E+00   -2.8340094970E+00   -2.8282842227E+00
   -2.8225820342E+00   -2.8169027921E+00   -2.8112463582E+00   -2.8056125953E+00
   -2.8000013675E+00   -2.7944125397E+00   -2.7888459782E+00   -2.7833015501E+00
   -2.7777791237E+00   -2.7722785683E+00   -2.7667997542E+00   -2.7613425527E+00
   -2.7559068363E+00   -2.7504924782E+00   -2.7450993530E+00   -2.7397273358E+00
   -2.7343763031E+00   -2.7290461320E+00   -2.7237367010E+00   -2.7184478890E+00
   -2.7131795763E+00   -2.7079316440E+00   -2.7027039739E+00   -2.6974964489E+00
   -2.6923089529E+00   -2.6871413705E+00   -2.6819935872E+00   -2.6768654895E+00
   -2.6717569647E+00   -2.6666679010E+00   -2.6615981872E+00   -2.6565477134E+00