<UPF version="2.0.1">
  <PP_INFO>

 This pseudopotential file has been produced using the code
 ONCVPSP  (Optimized Norm-Conservinng Vanderbilt PSeudopotential)
 scalar-relativistic version 4.0.1 06/04/2019 by D. R. Hamann
 The code is available through a link at URL www.mat-simresearch.com.
 Documentation with the package provides a full discription of the
 input data below.


 While it is not required under the terms of the GNU GPL, it is
 suggested that you cite D. R. Hamann, Phys. Rev. B 88, 085117 (2013)
 in any publication using these pseudopotentials.

    <PP_INPUTFILE>
# ATOM AND REFERENCE CONFIGURATION
# atsym  z   nc   nv     iexc    psfile
  F  9.00    1    2       4      upf
#
#   n    l    f        energy (Ha)
    1    0    2.00
    2    0    2.00
    2    1    5.00
#
# PSEUDOPOTENTIAL AND OPTIMIZATION
# lmax
    2
#
#   l,   rc,      ep,       ncon, nbas, qcut
    0   1.30000  -1.10000    4    8   8.60000
    1   1.45000  -0.41000    4    8   9.00000
    2   1.60000   0.15000    4    8   5.80000
#
# LOCAL POTENTIAL
# lloc, lpopt,  rc(5),   dvloc0
    4    5   0.95000      0.00000
#
# VANDERBILT-KLEINMAN-BYLANDER PROJECTORs
# l, nproj, debl
    0    2   1.50000
    1    2   1.50000
    2    1   2.00000
#
# MODEL CORE CHARGE
# icmod, fcfact, rcfact
    3   2.50000   1.85000
#
# LOG DERIVATIVE ANALYSIS
# epsh1, epsh2, depsh
  -12.00   12.00    0.02
#
# OUTPUT GRID
# rlmax, drl
    6.00    0.01
#
# TEST CONFIGURATIONS
# ncnf
    0
# nvcnf
#   n    l    f
    </PP_INPUTFILE>
  </PP_INFO>
  <!--                               -->
  <!-- END OF HUMAN READABLE SECTION -->
  <!--                               -->
    <PP_HEADER
       generated="Generated using ONCVPSP code by D. R. Hamann"
       author="anonymous"
       date="220414"
       comment=""
       element="F "
       pseudo_type="NC"
       relativistic="scalar"
       is_ultrasoft="F"
       is_paw="F"
       is_coulomb="F"
       has_so="F"
       has_wfc="F"
       has_gipaw="F"
       core_correction="T"
       functional="PBE"
       z_valence="    7.00"
       total_psenergy="  -4.77534567505E+01"
       rho_cutoff="   8.33000000000E+00"
       l_max="2"
       l_local="-1"
       mesh_size="   834"
       number_of_wfc="2"
       number_of_proj="5"/>
 <PP_MESH>
   <PP_R type="real"  size=" 834" columns="8">
    0.0000    0.0100    0.0200    0.0300    0.0400    0.0500    0.0600    0.0700
    0.0800    0.0900    0.1000    0.1100    0.1200    0.1300    0.1400    0.1500
    0.1600    0.1700    0.1800    0.1900    0.2000    0.2100    0.2200    0.2300
    0.2400    0.2500    0.2600    0.2700    0.2800    0.2900    0.3000    0.3100
    0.3200    0.3300    0.3400    0.3500    0.3600    0.3700    0.3800    0.3900
    0.4000    0.4100    0.4200    0.4300    0.4400    0.4500    0.4600    0.4700
    0.4800    0.4900    0.5000    0.5100    0.5200    0.5300    0.5400    0.5500
    0.5600    0.5700    0.5800    0.5900    0.6000    0.6100    0.6200    0.6300
    0.6400    0.6500    0.6600    0.6700    0.6800    0.6900    0.7000    0.7100
    0.7200    0.7300    0.7400    0.7500    0.7600    0.7700    0.7800    0.7900
    0.8000    0.8100    0.8200    0.8300    0.8400    0.8500    0.8600    0.8700
    0.8800    0.8900    0.9000    0.9100    0.9200    0.9300    0.9400    0.9500
    0.9600    0.9700    0.9800    0.9900    1.0000    1.0100    1.0200    1.0300
    1.0400    1.0500    1.0600    1.0700    1.0800    1.0900    1.1000    1.1100
    1.1200    1.1300    1.1400    1.1500    1.1600    1.1700    1.1800    1.1900
    1.2000    1.2100    1.2200    1.2300    1.2400    1.2500    1.2600    1.2700
    1.2800    1.2900    1.3000    1.3100    1.3200    1.3300    1.3400    1.3500
    1.3600    1.3700    1.3800    1.3900    1.4000    1.4100    1.4200    1.4300
    1.4400    1.4500    1.4600    1.4700    1.4800    1.4900    1.5000    1.5100
    1.5200    1.5300    1.5400    1.5500    1.5600    1.5700    1.5800    1.5900
    1.6000    1.6100    1.6200    1.6300    1.6400    1.6500    1.6600    1.6700
    1.6800    1.6900    1.7000    1.7100    1.7200    1.7300    1.7400    1.7500
    1.7600    1.7700    1.7800    1.7900    1.8000    1.8100    1.8200    1.8300
    1.8400    1.8500    1.8600    1.8700    1.8800    1.8900    1.9000    1.9100
    1.9200    1.9300    1.9400    1.9500    1.9600    1.9700    1.9800    1.9900
    2.0000    2.0100    2.0200    2.0300    2.0400    2.0500    2.0600    2.0700
    2.0800    2.0900    2.1000    2.1100    2.1200    2.1300    2.1400    2.1500
    2.1600    2.1700    2.1800    2.1900    2.2000    2.2100    2.2200    2.2300
    2.2400    2.2500    2.2600    2.2700    2.2800    2.2900    2.3000    2.3100
    2.3200    2.3300    2.3400    2.3500    2.3600    2.3700    2.3800    2.3900
    2.4000    2.4100    2.4200    2.4300    2.4400    2.4500    2.4600    2.4700
    2.4800    2.4900    2.5000    2.5100    2.5200    2.5300    2.5400    2.5500
    2.5600    2.5700    2.5800    2.5900    2.6000    2.6100    2.6200    2.6300
    2.6400    2.6500    2.6600    2.6700    2.6800    2.6900    2.7000    2.7100
    2.7200    2.7300    2.7400    2.7500    2.7600    2.7700    2.7800    2.7900
    2.8000    2.8100    2.8200    2.8300    2.8400    2.8500    2.8600    2.8700
    2.8800    2.8900    2.9000    2.9100    2.9200    2.9300    2.9400    2.9500
    2.9600    2.9700    2.9800    2.9900    3.0000    3.0100    3.0200    3.0300
    3.0400    3.0500    3.0600    3.0700    3.0800    3.0900    3.1000    3.1100
    3.1200    3.1300    3.1400    3.1500    3.1600    3.1700    3.1800    3.1900
    3.2000    3.2100    3.2200    3.2300    3.2400    3.2500    3.2600    3.2700
    3.2800    3.2900    3.3000    3.3100    3.3200    3.3300    3.3400    3.3500
    3.3600    3.3700    3.3800    3.3900    3.4000    3.4100    3.4200    3.4300
    3.4400    3.4500    3.4600    3.4700    3.4800    3.4900    3.5000    3.5100
    3.5200    3.5300    3.5400    3.5500    3.5600    3.5700    3.5800    3.5900
    3.6000    3.6100    3.6200    3.6300    3.6400    3.6500    3.6600    3.6700
    3.6800    3.6900    3.7000    3.7100    3.7200    3.7300    3.7400    3.7500
    3.7600    3.7700    3.7800    3.7900    3.8000    3.8100    3.8200    3.8300
    3.8400    3.8500    3.8600    3.8700    3.8800    3.8900    3.9000    3.9100
    3.9200    3.9300    3.9400    3.9500    3.9600    3.9700    3.9800    3.9900
    4.0000    4.0100    4.0200    4.0300    4.0400    4.0500    4.0600    4.0700
    4.0800    4.0900    4.1000    4.1100    4.1200    4.1300    4.1400    4.1500
    4.1600    4.1700    4.1800    4.1900    4.2000    4.2100    4.2200    4.2300
    4.2400    4.2500    4.2600    4.2700    4.2800    4.2900    4.3000    4.3100
    4.3200    4.3300    4.3400    4.3500    4.3600    4.3700    4.3800    4.3900
    4.4000    4.4100    4.4200    4.4300    4.4400    4.4500    4.4600    4.4700
    4.4800    4.4900    4.5000    4.5100    4.5200    4.5300    4.5400    4.5500
    4.5600    4.5700    4.5800    4.5900    4.6000    4.6100    4.6200    4.6300
    4.6400    4.6500    4.6600    4.6700    4.6800    4.6900    4.7000    4.7100
    4.7200    4.7300    4.7400    4.7500    4.7600    4.7700    4.7800    4.7900
    4.8000    4.8100    4.8200    4.8300    4.8400    4.8500    4.8600    4.8700
    4.8800    4.8900    4.9000    4.9100    4.9200    4.9300    4.9400    4.9500
    4.9600    4.9700    4.9800    4.9900    5.0000    5.0100    5.0200    5.0300
    5.0400    5.0500    5.0600    5.0700    5.0800    5.0900    5.1000    5.1100
    5.1200    5.1300    5.1400    5.1500    5.1600    5.1700    5.1800    5.1900
    5.2000    5.2100    5.2200    5.2300    5.2400    5.2500    5.2600    5.2700
    5.2800    5.2900    5.3000    5.3100    5.3200    5.3300    5.3400    5.3500
    5.3600    5.3700    5.3800    5.3900    5.4000    5.4100    5.4200    5.4300
    5.4400    5.4500    5.4600    5.4700    5.4800    5.4900    5.5000    5.5100
    5.5200    5.5300    5.5400    5.5500    5.5600    5.5700    5.5800    5.5900
    5.6000    5.6100    5.6200    5.6300    5.6400    5.6500    5.6600    5.6700
    5.6800    5.6900    5.7000    5.7100    5.7200    5.7300    5.7400    5.7500
    5.7600    5.7700    5.7800    5.7900    5.8000    5.8100    5.8200    5.8300
    5.8400    5.8500    5.8600    5.8700    5.8800    5.8900    5.9000    5.9100
    5.9200    5.9300    5.9400    5.9500    5.9600    5.9700    5.9800    5.9900
    6.0000    6.0100    6.0200    6.0300    6.0400    6.0500    6.0600    6.0700
    6.0800    6.0900    6.1000    6.1100    6.1200    6.1300    6.1400    6.1500
    6.1600    6.1700    6.1800    6.1900    6.2000    6.2100    6.2200    6.2300
    6.2400    6.2500    6.2600    6.2700    6.2800    6.2900    6.3000    6.3100
    6.3200    6.3300    6.3400    6.3500    6.3600    6.3700    6.3800    6.3900
    6.4000    6.4100    6.4200    6.4300    6.4400    6.4500    6.4600    6.4700
    6.4800    6.4900    6.5000    6.5100    6.5200    6.5300    6.5400    6.5500
    6.5600    6.5700    6.5800    6.5900    6.6000    6.6100    6.6200    6.6300
    6.6400    6.6500    6.6600    6.6700    6.6800    6.6900    6.7000    6.7100
    6.7200    6.7300    6.7400    6.7500    6.7600    6.7700    6.7800    6.7900
    6.8000    6.8100    6.8200    6.8300    6.8400    6.8500    6.8600    6.8700
    6.8800    6.8900    6.9000    6.9100    6.9200    6.9300    6.9400    6.9500
    6.9600    6.9700    6.9800    6.9900    7.0000    7.0100    7.0200    7.0300
    7.0400    7.0500    7.0600    7.0700    7.0800    7.0900    7.1000    7.1100
    7.1200    7.1300    7.1400    7.1500    7.1600    7.1700    7.1800    7.1900
    7.2000    7.2100    7.2200    7.2300    7.2400    7.2500    7.2600    7.2700
    7.2800    7.2900    7.3000    7.3100    7.3200    7.3300    7.3400    7.3500
    7.3600    7.3700    7.3800    7.3900    7.4000    7.4100    7.4200    7.4300
    7.4400    7.4500    7.4600    7.4700    7.4800    7.4900    7.5000    7.5100
    7.5200    7.5300    7.5400    7.5500    7.5600    7.5700    7.5800    7.5900
    7.6000    7.6100    7.6200    7.6300    7.6400    7.6500    7.6600    7.6700
    7.6800    7.6900    7.7000    7.7100    7.7200    7.7300    7.7400    7.7500
    7.7600    7.7700    7.7800    7.7900    7.8000    7.8100    7.8200    7.8300
    7.8400    7.8500    7.8600    7.8700    7.8800    7.8900    7.9000    7.9100
    7.9200    7.9300    7.9400    7.9500    7.9600    7.9700    7.9800    7.9900
    8.0000    8.0100    8.0200    8.0300    8.0400    8.0500    8.0600    8.0700
    8.0800    8.0900    8.1000    8.1100    8.1200    8.1300    8.1400    8.1500
    8.1600    8.1700    8.1800    8.1900    8.2000    8.2100    8.2200    8.2300
    8.2400    8.2500    8.2600    8.2700    8.2800    8.2900    8.3000    8.3100
    8.3200    8.3300
   </PP_R>
   <PP_RAB type="real"  size=" 834" columns="8">
    0.0100    0.0100    0.0100    0.0100    0.0100    0.0100    0.0100    0.0100
    0.0100    0.0100    0.0100    0.0100    0.0100    0.0100    0.0100    0.0100
    0.0100    0.0100    0.0100    0.0100    0.0100    0.0100    0.0100    0.0100
    0.0100    0.0100    0.0100    0.0100    0.0100    0.0100    0.0100    0.0100
    0.0100    0.0100    0.0100    0.0100    0.0100    0.0100    0.0100    0.0100
    0.0100    0.0100    0.0100    0.0100    0.0100    0.0100    0.0100    0.0100
    0.0100    0.0100    0.0100    0.0100    0.0100    0.0100    0.0100    0.0100
    0.0100    0.0100    0.0100    0.0100    0.0100    0.0100    0.0100    0.0100
    0.0100    0.0100    0.0100    0.0100    0.0100    0.0100    0.0100    0.0100
    0.0100    0.0100    0.0100    0.0100    0.0100    0.0100    0.0100    0.0100
    0.0100    0.0100    0.0100    0.0100    0.0100    0.0100    0.0100    0.0100
    0.0100    0.0100    0.0100    0.0100    0.0100    0.0100    0.0100    0.0100
    0.0100    0.0100    0.0100    0.0100    0.0100    0.0100    0.0100    0.0100
    0.0100    0.0100    0.0100    0.0100    0.0100    0.0100    0.0100    0.0100
    0.0100    0.0100    0.0100    0.0100    0.0100    0.0100    0.0100    0.0100
    0.0100    0.0100    0.0100    0.0100    0.0100    0.0100    0.0100    0.0100
    0.0100    0.0100    0.0100    0.0100    0.0100    0.0100    0.0100    0.0100
    0.0100    0.0100    0.0100    0.0100    0.0100    0.0100    0.0100    0.0100
    0.0100    0.0100    0.0100    0.0100    0.0100    0.0100    0.0100    0.0100
    0.0100    0.0100    0.0100    0.0100    0.0100    0.0100    0.0100    0.0100
    0.0100    0.0100    0.0100    0.0100    0.0100    0.0100    0.0100    0.0100
    0.0100    0.0100    0.0100    0.0100    0.0100    0.0100    0.0100    0.0100
    0.0100    0.0100    0.0100    0.0100    0.0100    0.0100    0.0100    0.0100
    0.0100    0.0100    0.0100    0.0100    0.0100    0.0100    0.0100    0.0100
    0.0100    0.0100    0.0100    0.0100    0.0100    0.0100    0.0100    0.0100
    0.0100    0.0100    0.0100    0.0100    0.0100    0.0100    0.0100    0.0100
    0.0100    0.0100    0.0100    0.0100    0.0100    0.0100    0.0100    0.0100
    0.0100    0.0100    0.0100    0.0100    0.0100    0.0100    0.0100    0.0100
    0.0100    0.0100    0.0100    0.0100    0.0100    0.0100    0.0100    0.0100
    0.0100    0.0100    0.0100    0.0100    0.0100    0.0100    0.0100    0.0100
    0.0100    0.0100    0.0100    0.0100    0.0100    0.0100    0.0100    0.0100
    0.0100    0.0100    0.0100    0.0100    0.0100    0.0100    0.0100    0.0100
    0.0100    0.0100    0.0100    0.0100    0.0100    0.0100    0.0100    0.0100
    0.0100    0.0100    0.0100    0.0100    0.0100    0.0100    0.0100    0.0100
    0.0100    0.0100    0.0100    0.0100    0.0100    0.0100    0.0100    0.0100
    0.0100    0.0100    0.0100    0.0100    0.0100    0.0100    0.0100    0.0100
    0.0100    0.0100    0.0100    0.0100    0.0100    0.0100    0.0100    0.0100
    0.0100    0.0100    0.0100    0.0100    0.0100    0.0100    0.0100    0.0100
    0.0100    0.0100    0.0100    0.0100    0.0100    0.0100    0.0100    0.0100
    0.0100    0.0100    0.0100    0.0100    0.0100    0.0100    0.0100    0.0100
    0.0100    0.0100    0.0100    0.0100    0.0100    0.0100    0.0100    0.0100
    0.0100    0.0100    0.0100    0.0100    0.0100    0.0100    0.0100    0.0100
    0.0100    0.0100    0.0100    0.0100    0.0100    0.0100    0.0100    0.0100
    0.0100    0.0100    0.0100    0.0100    0.0100    0.0100    0.0100    0.0100
    0.0100    0.0100    0.0100    0.0100    0.0100    0.0100    0.0100    0.0100
    0.0100    0.0100    0.0100    0.0100    0.0100    0.0100    0.0100    0.0100
    0.0100    0.0100    0.0100    0.0100    0.0100    0.0100    0.0100    0.0100
    0.0100    0.0100    0.0100    0.0100    0.0100    0.0100    0.0100    0.0100
    0.0100    0.0100    0.0100    0.0100    0.0100    0.0100    0.0100    0.0100
    0.0100    0.0100    0.0100    0.0100    0.0100    0.0100    0.0100    0.0100
    0.0100    0.0100    0.0100    0.0100    0.0100    0.0100    0.0100    0.0100
    0.0100    0.0100    0.0100    0.0100    0.0100    0.0100    0.0100    0.0100
    0.0100    0.0100    0.0100    0.0100    0.0100    0.0100    0.0100    0.0100
    0.0100    0.0100    0.0100    0.0100    0.0100    0.0100    0.0100    0.0100
    0.0100    0.0100    0.0100    0.0100    0.0100    0.0100    0.0100    0.0100
    0.0100    0.0100    0.0100    0.0100    0.0100    0.0100    0.0100    0.0100
    0.0100    0.0100    0.0100    0.0100    0.0100    0.0100    0.0100    0.0100
    0.0100    0.0100    0.0100    0.0100    0.0100    0.0100    0.0100    0.0100
    0.0100    0.0100    0.0100    0.0100    0.0100    0.0100    0.0100    0.0100
    0.0100    0.0100    0.0100    0.0100    0.0100    0.0100    0.0100    0.0100
    0.0100    0.0100    0.0100    0.0100    0.0100    0.0100    0.0100    0.0100
    0.0100    0.0100    0.0100    0.0100    0.0100    0.0100    0.0100    0.0100
    0.0100    0.0100    0.0100    0.0100    0.0100    0.0100    0.0100    0.0100
    0.0100    0.0100    0.0100    0.0100    0.0100    0.0100    0.0100    0.0100
    0.0100    0.0100    0.0100    0.0100    0.0100    0.0100    0.0100    0.0100
    0.0100    0.0100    0.0100    0.0100    0.0100    0.0100    0.0100    0.0100
    0.0100    0.0100    0.0100    0.0100    0.0100    0.0100    0.0100    0.0100
    0.0100    0.0100    0.0100    0.0100    0.0100    0.0100    0.0100    0.0100
    0.0100    0.0100    0.0100    0.0100    0.0100    0.0100    0.0100    0.0100
    0.0100    0.0100    0.0100    0.0100    0.0100    0.0100    0.0100    0.0100
    0.0100    0.0100    0.0100    0.0100    0.0100    0.0100    0.0100    0.0100
    0.0100    0.0100    0.0100    0.0100    0.0100    0.0100    0.0100    0.0100
    0.0100    0.0100    0.0100    0.0100    0.0100    0.0100    0.0100    0.0100
    0.0100    0.0100    0.0100    0.0100    0.0100    0.0100    0.0100    0.0100
    0.0100    0.0100    0.0100    0.0100    0.0100    0.0100    0.0100    0.0100
    0.0100    0.0100    0.0100    0.0100    0.0100    0.0100    0.0100    0.0100
    0.0100    0.0100    0.0100    0.0100    0.0100    0.0100    0.0100    0.0100
    0.0100    0.0100    0.0100    0.0100    0.0100    0.0100    0.0100    0.0100
    0.0100    0.0100    0.0100    0.0100    0.0100    0.0100    0.0100    0.0100
    0.0100    0.0100    0.0100    0.0100    0.0100    0.0100    0.0100    0.0100
    0.0100    0.0100    0.0100    0.0100    0.0100    0.0100    0.0100    0.0100
    0.0100    0.0100    0.0100    0.0100    0.0100    0.0100    0.0100    0.0100
    0.0100    0.0100    0.0100    0.0100    0.0100    0.0100    0.0100    0.0100
    0.0100    0.0100    0.0100    0.0100    0.0100    0.0100    0.0100    0.0100
    0.0100    0.0100    0.0100    0.0100    0.0100    0.0100    0.0100    0.0100
    0.0100    0.0100    0.0100    0.0100    0.0100    0.0100    0.0100    0.0100
    0.0100    0.0100    0.0100    0.0100    0.0100    0.0100    0.0100    0.0100
    0.0100    0.0100    0.0100    0.0100    0.0100    0.0100    0.0100    0.0100
    0.0100    0.0100    0.0100    0.0100    0.0100    0.0100    0.0100    0.0100
    0.0100    0.0100    0.0100    0.0100    0.0100    0.0100    0.0100    0.0100
    0.0100    0.0100    0.0100    0.0100    0.0100    0.0100    0.0100    0.0100
    0.0100    0.0100    0.0100    0.0100    0.0100    0.0100    0.0100    0.0100
    0.0100    0.0100    0.0100    0.0100    0.0100    0.0100    0.0100    0.0100
    0.0100    0.0100    0.0100    0.0100    0.0100    0.0100    0.0100    0.0100
    0.0100    0.0100    0.0100    0.0100    0.0100    0.0100    0.0100    0.0100
    0.0100    0.0100    0.0100    0.0100    0.0100    0.0100    0.0100    0.0100
    0.0100    0.0100    0.0100    0.0100    0.0100    0.0100    0.0100    0.0100
    0.0100    0.0100    0.0100    0.0100    0.0100    0.0100    0.0100    0.0100
    0.0100    0.0100    0.0100    0.0100    0.0100    0.0100    0.0100    0.0100
    0.0100    0.0100    0.0100    0.0100    0.0100    0.0100    0.0100    0.0100
    0.0100    0.0100    0.0100    0.0100    0.0100    0.0100    0.0100    0.0100
    0.0100    0.0100    0.0100    0.0100    0.0100    0.0100    0.0100    0.0100
    0.0100    0.0100    0.0100    0.0100    0.0100    0.0100    0.0100    0.0100
    0.0100    0.0100    0.0100    0.0100    0.0100    0.0100    0.0100    0.0100
    0.0100    0.0100
   </PP_RAB>
 </PP_MESH>
  <PP_LOCAL type="real"  size=" 834" columns="4">
   -3.0828435113E+01   -3.0825484221E+01   -3.0816635007E+01   -3.0801902563E+01
   -3.0781310712E+01   -3.0754891752E+01   -3.0722685469E+01   -3.0684737973E+01
   -3.0641100413E+01   -3.0591827635E+01   -3.0536976846E+01   -3.0476606356E+01
   -3.0410774421E+01   -3.0339538252E+01   -3.0262953200E+01   -3.0181072145E+01
   -3.0093945075E+01   -3.0001618880E+01   -2.9904137317E+01   -2.9801541152E+01
   -2.9693868448E+01   -2.9581154981E+01   -2.9463434756E+01   -2.9340740604E+01
   -2.9213104838E+01   -2.9080559952E+01   -2.8943139342E+01   -2.8800878040E+01
   -2.8653813436E+01   -2.8501986003E+01   -2.8345439986E+01   -2.8184224072E+01
   -2.8018392022E+01   -2.7848003262E+01   -2.7673123433E+01   -2.7493824888E+01
   -2.7310187136E+01   -2.7122297232E+01   -2.6930250104E+01   -2.6734148813E+01
   -2.6534104745E+01   -2.6330237740E+01   -2.6122676140E+01   -2.5911556768E+01
   -2.5697024834E+01   -2.5479233775E+01   -2.5258345012E+01   -2.5034527666E+01
   -2.4807958191E+01   -2.4578819975E+01   -2.4347302880E+01   -2.4113602756E+01
   -2.3877920912E+01   -2.3640463575E+01   -2.3401441319E+01   -2.3161068493E+01
   -2.2919562626E+01   -2.2677143833E+01   -2.2434034217E+01   -2.2190457259E+01
   -2.1946637200E+01   -2.1702798420E+01   -2.1459164804E+01   -2.1215959091E+01
   -2.0973402215E+01   -2.0731712629E+01   -2.0491105617E+01   -2.0251792593E+01
   -2.0013980392E+01   -1.9777870555E+01   -1.9543658620E+01   -1.9311533413E+01
   -1.9081676362E+01   -1.8854260817E+01   -1.8629451413E+01   -1.8407403453E+01
   -1.8188262331E+01   -1.7972163006E+01   -1.7759229507E+01   -1.7549574491E+01
   -1.7343298857E+01   -1.7140491388E+01   -1.6941228459E+01   -1.6745573774E+01
   -1.6553578150E+01   -1.6365279335E+01   -1.6180701858E+01   -1.5999856907E+01
   -1.5822742227E+01   -1.5649342039E+01   -1.5479626963E+01   -1.5313553956E+01
   -1.5151066246E+01   -1.4992093262E+01   -1.4836550557E+01   -1.4684339723E+01
   -1.4535348968E+01   -1.4389461239E+01   -1.4246562903E+01   -1.4106544607E+01
   -1.3969301289E+01   -1.3834732168E+01   -1.3702740718E+01   -1.3573234632E+01
   -1.3446125768E+01   -1.3321330082E+01   -1.3198767548E+01   -1.3078362065E+01
   -1.2960041356E+01   -1.2843736860E+01   -1.2729383616E+01   -1.2616920148E+01
   -1.2506288340E+01   -1.2397433326E+01   -1.2290303363E+01   -1.2184849726E+01
   -1.2081026591E+01   -1.1978790933E+01   -1.1878102426E+01   -1.1778923339E+01
   -1.1681218450E+01   -1.1584954947E+01   -1.1490102342E+01   -1.1396632376E+01
   -1.1304518921E+01   -1.1213737839E+01   -1.1124266944E+01   -1.1036085978E+01
   -1.0949176334E+01   -1.0863520980E+01   -1.0779104137E+01   -1.0695916206E+01
   -1.0613963590E+01   -1.0533238434E+01   -1.0453727604E+01   -1.0375418539E+01
   -1.0298298445E+01   -1.0222354099E+01   -1.0147571657E+01   -1.0073936446E+01
   -1.0001432834E+01   -9.9300441857E+00   -9.8597526494E+00   -9.7905390464E+00
   -9.7223830372E+00   -9.6552626108E+00   -9.5891319520E+00   -9.5239064272E+00
   -9.4595596434E+00   -9.3960752577E+00   -9.3334358893E+00   -9.2716247958E+00
   -9.2106257388E+00   -9.1504229452E+00   -9.0910010845E+00   -9.0323452433E+00
   -8.9744409021E+00   -8.9172739127E+00   -8.8608304773E+00   -8.8050971299E+00
   -8.7500607188E+00   -8.6957083924E+00   -8.6420275862E+00   -8.5890060119E+00
   -8.5366316494E+00   -8.4848927390E+00   -8.4337777765E+00   -8.3832755088E+00
   -8.3333749305E+00   -8.2840652818E+00   -8.2353360458E+00   -8.1871769468E+00
   -8.1395779483E+00   -8.0925292500E+00   -8.0460212856E+00   -8.0000447186E+00
   -7.9545904387E+00   -7.9096495562E+00   -7.8652133970E+00   -7.8212734963E+00
   -7.7778215912E+00   -7.7348496145E+00   -7.6923496862E+00   -7.6503141052E+00
   -7.6087353538E+00   -7.5676060316E+00   -7.5269190198E+00   -7.4866674651E+00
   -7.4468443524E+00   -7.4074426260E+00   -7.3684556597E+00   -7.3298769417E+00
   -7.2917000898E+00   -7.2539188580E+00   -7.2165271284E+00   -7.1795189084E+00
   -7.1428883280E+00   -7.1066296361E+00   -7.0707371981E+00   -7.0352054924E+00
   -7.0000291079E+00   -6.9652027413E+00   -6.9307211942E+00   -6.8965793708E+00
   -6.8627722749E+00   -6.8292950081E+00   -6.7961427671E+00   -6.7633108412E+00
   -6.7307946105E+00   -6.6985895434E+00   -6.6666911946E+00   -6.6350952034E+00
   -6.6037972909E+00   -6.5727932588E+00   -6.5420789873E+00   -6.5116504333E+00
   -6.4815036283E+00   -6.4516346773E+00   -6.4220397565E+00   -6.3927151121E+00
   -6.3636570585E+00   -6.3348619768E+00   -6.3063263132E+00   -6.2780465780E+00
   -6.2500193434E+00   -6.2222412428E+00   -6.1947089691E+00   -6.1674192737E+00
   -6.1403689638E+00   -6.1135549041E+00   -6.0869740151E+00   -6.0606232651E+00
   -6.0344996787E+00   -6.0086003331E+00   -5.9829223522E+00   -5.9574629100E+00
   -5.9322192287E+00   -5.9071885772E+00   -5.8823682700E+00   -5.8577556670E+00
   -5.8333481719E+00   -5.8091432314E+00   -5.7851383344E+00   -5.7613310115E+00
   -5.7377188332E+00   -5.7142994102E+00   -5.6910703917E+00   -5.6680294652E+00
   -5.6451743553E+00   -5.6225028232E+00   -5.6000126661E+00   -5.5777017161E+00
   -5.5555678397E+00   -5.5336089373E+00   -5.5118229422E+00   -5.4902078203E+00
   -5.4687615690E+00   -5.4474822172E+00   -5.4263678241E+00   -5.4054164790E+00
   -5.3846263006E+00   -5.3639954363E+00   -5.3435220620E+00   -5.3232043811E+00
   -5.3030406245E+00   -5.2830290494E+00   -5.2631679397E+00   -5.2434556046E+00
   -5.2238903788E+00   -5.2044706216E+00   -5.1851947166E+00   -5.1660610714E+00
   -5.1470681170E+00   -5.1282143072E+00   -5.1094981185E+00   -5.0909180497E+00
   -5.0724726211E+00   -5.0541603745E+00   -5.0359798726E+00   -5.0179296989E+00
   -5.0000084568E+00   -4.9822147700E+00   -4.9645472814E+00   -4.9470046532E+00
   -4.9295855665E+00   -4.9122887206E+00   -4.8951128335E+00   -4.8780566407E+00
   -4.8611188953E+00   -4.8442983677E+00   -4.8275938454E+00   -4.8110041323E+00
   -4.7945280490E+00   -4.7781644318E+00   -4.7619121333E+00   -4.7457700213E+00
   -4.7297369789E+00   -4.7138119046E+00   -4.6979937113E+00   -4.6822813265E+00
   -4.6666736923E+00   -4.6511697646E+00   -4.6357685130E+00   -4.6204689211E+00
   -4.6052699855E+00   -4.5901707161E+00   -4.5751701359E+00   -4.5602672804E+00
   -4.5454611976E+00   -4.5307509482E+00   -4.5161356045E+00   -4.5016142510E+00
   -4.4871859841E+00   -4.4728499115E+00   -4.4586051523E+00   -4.4444508367E+00
   -4.4303861063E+00   -4.4164101131E+00   -4.4025220200E+00   -4.3887210002E+00
   -4.3750062375E+00   -4.3613769257E+00   -4.3478322686E+00   -4.3343714800E+00
   -4.3209937833E+00   -4.3076984114E+00   -4.2944846067E+00   -4.2813516210E+00
   -4.2682987149E+00   -4.2553251582E+00   -4.2424302296E+00   -4.2296132164E+00
   -4.2168734146E+00   -4.2042101284E+00   -4.1916226707E+00   -4.1791103623E+00
   -4.1666725323E+00   -4.1543085176E+00   -4.1420176630E+00   -4.1297993212E+00
   -4.1176528521E+00   -4.1055776236E+00   -4.0935730107E+00   -4.0816383958E+00
   -4.0697731683E+00   -4.0579767250E+00   -4.0462484693E+00   -4.0345878118E+00
   -4.0229941697E+00   -4.0114669669E+00   -4.0000056340E+00   -3.9886096079E+00
   -3.9772783320E+00   -3.9660112561E+00   -3.9548078360E+00   -3.9436675338E+00
   -3.9325898177E+00   -3.9215741616E+00   -3.9106200455E+00   -3.8997269551E+00
   -3.8888943818E+00   -3.8781218229E+00   -3.8674087808E+00   -3.8567547637E+00
   -3.8461592851E+00   -3.8356218639E+00   -3.8251420241E+00   -3.8147192952E+00
   -3.8043532115E+00   -3.7940433124E+00   -3.7837891424E+00   -3.7735902509E+00
   -3.7634461921E+00   -3.7533565249E+00   -3.7433208130E+00   -3.7333386248E+00
   -3.7234095333E+00   -3.7135331159E+00   -3.7037089545E+00   -3.6939366356E+00
   -3.6842157498E+00   -3.6745458921E+00   -3.6649266619E+00   -3.6553576624E+00
   -3.6458385014E+00   -3.6363687904E+00   -3.6269481452E+00   -3.6175761853E+00
   -3.6082525343E+00   -3.5989768197E+00   -3.5897486727E+00   -3.5805677284E+00
   -3.5714336254E+00   -3.5623460063E+00   -3.5533045171E+00   -3.5443088074E+00
   -3.5353585305E+00   -3.5264533429E+00   -3.5175929049E+00   -3.5087768799E+00
   -3.5000049349E+00   -3.4912767401E+00   -3.4825919690E+00   -3.4739502983E+00
   -3.4653514081E+00   -3.4567949813E+00   -3.4482807042E+00   -3.4398082662E+00
   -3.4313773597E+00   -3.4229876798E+00   -3.4146389251E+00   -3.4063307968E+00
   -3.3980629990E+00   -3.3898352389E+00   -3.3816472262E+00   -3.3734986737E+00
   -3.3653892968E+00   -3.3573188136E+00   -3.3492869451E+00   -3.3412934146E+00
   -3.3333379485E+00   -3.3254202754E+00   -3.3175401266E+00   -3.3096972361E+00
   -3.3018913403E+00   -3.2941221779E+00   -3.2863894904E+00   -3.2786930213E+00
   -3.2710325170E+00   -3.2634077259E+00   -3.2558183987E+00   -3.2482642887E+00
   -3.2407451514E+00   -3.2332607443E+00   -3.2258108275E+00   -3.2183951630E+00
   -3.2110135152E+00   -3.2036656506E+00   -3.1963513378E+00   -3.1890703475E+00
   -3.1818224525E+00   -3.1746074276E+00   -3.1674250498E+00   -3.1602750980E+00
   -3.1531573531E+00   -3.1460715979E+00   -3.1390176173E+00   -3.1319951981E+00
   -3.1250041288E+00   -3.1180442001E+00   -3.1111152043E+00   -3.1042169356E+00
   -3.0973491902E+00   -3.0905117659E+00   -3.0837044623E+00   -3.0769270808E+00
   -3.0701794246E+00   -3.0634612985E+00   -3.0567725092E+00   -3.0501128648E+00
   -3.0434821753E+00   -3.0368802523E+00   -3.0303069090E+00   -3.0237619602E+00
   -3.0172452223E+00   -3.0107565133E+00   -3.0042956528E+00   -2.9978624619E+00
   -2.9914567631E+00   -2.9850783808E+00   -2.9787271404E+00   -2.9724028691E+00
   -2.9661053955E+00   -2.9598345497E+00   -2.9535901631E+00   -2.9473720686E+00
   -2.9411801005E+00   -2.9350140944E+00   -2.9288738876E+00   -2.9227593182E+00
   -2.9166702262E+00   -2.9106064526E+00   -2.9045678399E+00   -2.8985542317E+00
   -2.8925654732E+00   -2.8866014104E+00   -2.8806618912E+00   -2.8747467641E+00
   -2.8688558794E+00   -2.8629890882E+00   -2.8571462431E+00   -2.8513271977E+00
   -2.8455318069E+00   -2.8397599269E+00   -2.8340114147E+00   -2.8282861288E+00
   -2.8225839288E+00   -2.8169046751E+00   -2.8112482298E+00   -2.8056144555E+00
   -2.8000032163E+00   -2.7944143772E+00   -2.7888478044E+00   -2.7833033651E+00
   -2.7777809274E+00   -2.7722803609E+00   -2.7668015356E+00   -2.7613443231E+00
   -2.7559085957E+00   -2.7504942267E+00   -2.7451010905E+00   -2.7397290625E+00
   -2.7343780189E+00   -2.7290478371E+00   -2.7237383954E+00   -2.7184495727E+00
   -2.7131812494E+00   -2.7079333065E+00   -2.7027056259E+00   -2.6974980904E+00
   -2.6923105840E+00   -2.6871429912E+00   -2.6819951976E+00   -2.6768670897E+00