<UPF version="2.0.1">
  <PP_INFO>

 This pseudopotential file has been produced using the code
 ONCVPSP  (Optimized Norm-Conservinng Vanderbilt PSeudopotential)
 fully-relativistic version 4.0.1 06/04/2019 by D. R. Hamann
 The code is available through a link at URL www.mat-simresearch.com.
 Documentation with the package provides a full discription of the
 input data below.


 While it is not required under the terms of the GNU GPL, it is
 suggested that you cite D. R. Hamann, Phys. Rev. B 88, 085117 (2013)
 in any publication using these pseudopotentials.

    <PP_INPUTFILE>
# ATOM AND REFERENCE CONFIGURATION
# atsym  z   nc   nv     iexc    psfile
  He  2.00    0    1       4      upf
#
#   n    l    f        energy (Ha)
    1    0    2.00
#
# PSEUDOPOTENTIAL AND OPTIMIZATION
# lmax
    1
#
#   l,   rc,     ep,   ncon, nbas, qcut
    0   1.25000  -0.58000    4    8   9.40000
    1   1.13000   0.05000    4    7   9.40000
#
# LOCAL POTENTIAL
# lloc, lpopt,  rc(5),   dvloc0
    4    5   1.00000      0.00000
#
# VANDERBILT-KLEINMAN-BYLANDER PROJECTORs
# l, nproj, debl
    0    2   1.00000
    1    1   1.00000
#
# MODEL CORE CHARGE
# icmod, fcfact, rcfact
    0   0.00000   0.00000
#
# LOG DERIVATIVE ANALYSIS
# epsh1, epsh2, depsh
  -12.00   12.00    0.02
#
# OUTPUT GRID
# rlmax, drl
    6.00    0.01
#
# TEST CONFIGURATIONS
# ncnf
    0
# nvcnf
#   n    l    f
    </PP_INPUTFILE>
  </PP_INFO>
  <!--                               -->
  <!-- END OF HUMAN READABLE SECTION -->
  <!--                               -->
    <PP_HEADER
       generated="Generated using ONCVPSP code by D. R. Hamann"
       author="anonymous"
       date="220414"
       comment=""
       element="He"
       pseudo_type="NC"
       relativistic="full"
       is_ultrasoft="F"
       is_paw="F"
       is_coulomb="F"
       has_so="T"
       has_wfc="F"
       has_gipaw="F"
       core_correction="F"
       functional="PBE"
       z_valence="    2.00"
       total_psenergy="  -5.71871664195E+00"
       rho_cutoff="   7.27000000000E+00"
       l_max="1"
       l_local="-1"
       mesh_size="   728"
       number_of_wfc="1"
       number_of_proj="4"/>
 <PP_MESH>
   <PP_R type="real"  size=" 728" columns="8">
    0.0000    0.0100    0.0200    0.0300    0.0400    0.0500    0.0600    0.0700
    0.0800    0.0900    0.1000    0.1100    0.1200    0.1300    0.1400    0.1500
    0.1600    0.1700    0.1800    0.1900    0.2000    0.2100    0.2200    0.2300
    0.2400    0.2500    0.2600    0.2700    0.2800    0.2900    0.3000    0.3100
    0.3200    0.3300    0.3400    0.3500    0.3600    0.3700    0.3800    0.3900
    0.4000    0.4100    0.4200    0.4300    0.4400    0.4500    0.4600    0.4700
    0.4800    0.4900    0.5000    0.5100    0.5200    0.5300    0.5400    0.5500
    0.5600    0.5700    0.5800    0.5900    0.6000    0.6100    0.6200    0.6300
    0.6400    0.6500    0.6600    0.6700    0.6800    0.6900    0.7000    0.7100
    0.7200    0.7300    0.7400    0.7500    0.7600    0.7700    0.7800    0.7900
    0.8000    0.8100    0.8200    0.8300    0.8400    0.8500    0.8600    0.8700
    0.8800    0.8900    0.9000    0.9100    0.9200    0.9300    0.9400    0.9500
    0.9600    0.9700    0.9800    0.9900    1.0000    1.0100    1.0200    1.0300
    1.0400    1.0500    1.0600    1.0700    1.0800    1.0900    1.1000    1.1100
    1.1200    1.1300    1.1400    1.1500    1.1600    1.1700    1.1800    1.1900
    1.2000    1.2100    1.2200    1.2300    1.2400    1.2500    1.2600    1.2700
    1.2800    1.2900    1.3000    1.3100    1.3200    1.3300    1.3400    1.3500
    1.3600    1.3700    1.3800    1.3900    1.4000    1.4100    1.4200    1.4300
    1.4400    1.4500    1.4600    1.4700    1.4800    1.4900    1.5000    1.5100
    1.5200    1.5300    1.5400    1.5500    1.5600    1.5700    1.5800    1.5900
    1.6000    1.6100    1.6200    1.6300    1.6400    1.6500    1.6600    1.6700
    1.6800    1.6900    1.7000    1.7100    1.7200    1.7300    1.7400    1.7500
    1.7600    1.7700    1.7800    1.7900    1.8000    1.8100    1.8200    1.8300
    1.8400    1.8500    1.8600    1.8700    1.8800    1.8900    1.9000    1.9100
    1.9200    1.9300    1.9400    1.9500    1.9600    1.9700    1.9800    1.9900
    2.0000    2.0100    2.0200    2.0300    2.0400    2.0500    2.0600    2.0700
    2.0800    2.0900    2.1000    2.1100    2.1200    2.1300    2.1400    2.1500
    2.1600    2.1700    2.1800    2.1900    2.2000    2.2100    2.2200    2.2300
    2.2400    2.2500    2.2600    2.2700    2.2800    2.2900    2.3000    2.3100
    2.3200    2.3300    2.3400    2.3500    2.3600    2.3700    2.3800    2.3900
    2.4000    2.4100    2.4200    2.4300    2.4400    2.4500    2.4600    2.4700
    2.4800    2.4900    2.5000    2.5100    2.5200    2.5300    2.5400    2.5500
    2.5600    2.5700    2.5800    2.5900    2.6000    2.6100    2.6200    2.6300
    2.6400    2.6500    2.6600    2.6700    2.6800    2.6900    2.7000    2.7100
    2.7200    2.7300    2.7400    2.7500    2.7600    2.7700    2.7800    2.7900
    2.8000    2.8100    2.8200    2.8300    2.8400    2.8500    2.8600    2.8700
    2.8800    2.8900    2.9000    2.9100    2.9200    2.9300    2.9400    2.9500
    2.9600    2.9700    2.9800    2.9900    3.0000    3.0100    3.0200    3.0300
    3.0400    3.0500    3.0600    3.0700    3.0800    3.0900    3.1000    3.1100
    3.1200    3.1300    3.1400    3.1500    3.1600    3.1700    3.1800    3.1900
    3.2000    3.2100    3.2200    3.2300    3.2400    3.2500    3.2600    3.2700
    3.2800    3.2900    3.3000    3.3100    3.3200    3.3300    3.3400    3.3500
    3.3600    3.3700    3.3800    3.3900    3.4000    3.4100    3.4200    3.4300
    3.4400    3.4500    3.4600    3.4700    3.4800    3.4900    3.5000    3.5100
    3.5200    3.5300    3.5400    3.5500    3.5600    3.5700    3.5800    3.5900
    3.6000    3.6100    3.6200    3.6300    3.6400    3.6500    3.6600    3.6700
    3.6800    3.6900    3.7000    3.7100    3.7200    3.7300    3.7400    3.7500
    3.7600    3.7700    3.7800    3.7900    3.8000    3.8100    3.8200    3.8300
    3.8400    3.8500    3.8600    3.8700    3.8800    3.8900    3.9000    3.9100
    3.9200    3.9300    3.9400    3.9500    3.9600    3.9700    3.9800    3.9900
    4.0000    4.0100    4.0200    4.0300    4.0400    4.0500    4.0600    4.0700
    4.0800    4.0900    4.1000    4.1100    4.1200    4.1300    4.1400    4.1500
    4.1600    4.1700    4.1800    4.1900    4.2000    4.2100    4.2200    4.2300
    4.2400    4.2500    4.2600    4.2700    4.2800    4.2900    4.3000    4.3100
    4.3200    4.3300    4.3400    4.3500    4.3600    4.3700    4.3800    4.3900
    4.4000    4.4100    4.4200    4.4300    4.4400    4.4500    4.4600    4.4700
    4.4800    4.4900    4.5000    4.5100    4.5200    4.5300    4.5400    4.5500
    4.5600    4.5700    4.5800    4.5900    4.6000    4.6100    4.6200    4.6300
    4.6400    4.6500    4.6600    4.6700    4.6800    4.6900    4.7000    4.7100
    4.7200    4.7300    4.7400    4.7500    4.7600    4.7700    4.7800    4.7900
    4.8000    4.8100    4.8200    4.8300    4.8400    4.8500    4.8600    4.8700
    4.8800    4.8900    4.9000    4.9100    4.9200    4.9300    4.9400    4.9500
    4.9600    4.9700    4.9800    4.9900    5.0000    5.0100    5.0200    5.0300
    5.0400    5.0500    5.0600    5.0700    5.0800    5.0900    5.1000    5.1100
    5.1200    5.1300    5.1400    5.1500    5.1600    5.1700    5.1800    5.1900
    5.2000    5.2100    5.2200    5.2300    5.2400    5.2500    5.2600    5.2700
    5.2800    5.2900    5.3000    5.3100    5.3200    5.3300    5.3400    5.3500
    5.3600    5.3700    5.3800    5.3900    5.4000    5.4100    5.4200    5.4300
    5.4400    5.4500    5.4600    5.4700    5.4800    5.4900    5.5000    5.5100
    5.5200    5.5300    5.5400    5.5500    5.5600    5.5700    5.5800    5.5900
    5.6000    5.6100    5.6200    5.6300    5.6400    5.6500    5.6600    5.6700
    5.6800    5.6900    5.7000    5.7100    5.7200    5.7300    5.7400    5.7500
    5.7600    5.7700    5.7800    5.7900    5.8000    5.8100    5.8200    5.8300
    5.8400    5.8500    5.8600    5.8700    5.8800    5.8900    5.9000    5.9100
    5.9200    5.9300    5.9400    5.9500    5.9600    5.9700    5.9800    5.9900
    6.0000    6.0100    6.0200    6.0300    6.0400    6.0500    6.0600    6.0700
    6.0800    6.0900    6.1000    6.1100    6.1200    6.1300    6.1400    6.1500
    6.1600    6.1700    6.1800    6.1900    6.2000    6.2100    6.2200    6.2300
    6.2400    6.2500    6.2600    6.2700    6.2800    6.2900    6.3000    6.3100
    6.3200    6.3300    6.3400    6.3500    6.3600    6.3700    6.3800    6.3900
    6.4000    6.4100    6.4200    6.4300    6.4400    6.4500    6.4600    6.4700
    6.4800    6.4900    6.5000    6.5100    6.5200    6.5300    6.5400    6.5500
    6.5600    6.5700    6.5800    6.5900    6.6000    6.6100    6.6200    6.6300
    6.6400    6.6500    6.6600    6.6700    6.6800    6.6900    6.7000    6.7100
    6.7200    6.7300    6.7400    6.7500    6.7600    6.7700    6.7800    6.7900
    6.8000    6.8100    6.8200    6.8300    6.8400    6.8500    6.8600    6.8700
    6.8800    6.8900    6.9000    6.9100    6.9200    6.9300    6.9400    6.9500
    6.9600    6.9700    6.9800    6.9900    7.0000    7.0100    7.0200    7.0300
    7.0400    7.0500    7.0600    7.0700    7.0800    7.0900    7.1000    7.1100
    7.1200    7.1300    7.1400    7.1500    7.1600    7.1700    7.1800    7.1900
    7.2000    7.2100    7.2200    7.2300    7.2400    7.2500    7.2600    7.2700
   </PP_R>
   <PP_RAB type="real"  size=" 728" columns="8">
    0.0100    0.0100    0.0100    0.0100    0.0100    0.0100    0.0100    0.0100
    0.0100    0.0100    0.0100    0.0100    0.0100    0.0100    0.0100    0.0100
    0.0100    0.0100    0.0100    0.0100    0.0100    0.0100    0.0100    0.0100
    0.0100    0.0100    0.0100    0.0100    0.0100    0.0100    0.0100    0.0100
    0.0100    0.0100    0.0100    0.0100    0.0100    0.0100    0.0100    0.0100
    0.0100    0.0100    0.0100    0.0100    0.0100    0.0100    0.0100    0.0100
    0.0100    0.0100    0.0100    0.0100    0.0100    0.0100    0.0100    0.0100
    0.0100    0.0100    0.0100    0.0100    0.0100    0.0100    0.0100    0.0100
    0.0100    0.0100    0.0100    0.0100    0.0100    0.0100    0.0100    0.0100
    0.0100    0.0100    0.0100    0.0100    0.0100    0.0100    0.0100    0.0100
    0.0100    0.0100    0.0100    0.0100    0.0100    0.0100    0.0100    0.0100
    0.0100    0.0100    0.0100    0.0100    0.0100    0.0100    0.0100    0.0100
    0.0100    0.0100    0.0100    0.0100    0.0100    0.0100    0.0100    0.0100
    0.0100    0.0100    0.0100    0.0100    0.0100    0.0100    0.0100    0.0100
    0.0100    0.0100    0.0100    0.0100    0.0100    0.0100    0.0100    0.0100
    0.0100    0.0100    0.0100    0.0100    0.0100    0.0100    0.0100    0.0100
    0.0100    0.0100    0.0100    0.0100    0.0100    0.0100    0.0100    0.0100
    0.0100    0.0100    0.0100    0.0100    0.0100    0.0100    0.0100    0.0100
    0.0100    0.0100    0.0100    0.0100    0.0100    0.0100    0.0100    0.0100
    0.0100    0.0100    0.0100    0.0100    0.0100    0.0100    0.0100    0.0100
    0.0100    0.0100    0.0100    0.0100    0.0100    0.0100    0.0100    0.0100
    0.0100    0.0100    0.0100    0.0100    0.0100    0.0100    0.0100    0.0100
    0.0100    0.0100    0.0100    0.0100    0.0100    0.0100    0.0100    0.0100
    0.0100    0.0100    0.0100    0.0100    0.0100    0.0100    0.0100    0.0100
    0.0100    0.0100    0.0100    0.0100    0.0100    0.0100    0.0100    0.0100
    0.0100    0.0100    0.0100    0.0100    0.0100    0.0100    0.0100    0.0100
    0.0100    0.0100    0.0100    0.0100    0.0100    0.0100    0.0100    0.0100
    0.0100    0.0100    0.0100    0.0100    0.0100    0.0100    0.0100    0.0100
    0.0100    0.0100    0.0100    0.0100    0.0100    0.0100    0.0100    0.0100
    0.0100    0.0100    0.0100    0.0100    0.0100    0.0100    0.0100    0.0100
    0.0100    0.0100    0.0100    0.0100    0.0100    0.0100    0.0100    0.0100
    0.0100    0.0100    0.0100    0.0100    0.0100    0.0100    0.0100    0.0100
    0.0100    0.0100    0.0100    0.0100    0.0100    0.0100    0.0100    0.0100
    0.0100    0.0100    0.0100    0.0100    0.0100    0.0100    0.0100    0.0100
    0.0100    0.0100    0.0100    0.0100    0.0100    0.0100    0.0100    0.0100
    0.0100    0.0100    0.0100    0.0100    0.0100    0.0100    0.0100    0.0100
    0.0100    0.0100    0.0100    0.0100    0.0100    0.0100    0.0100    0.0100
    0.0100    0.0100    0.0100    0.0100    0.0100    0.0100    0.0100    0.0100
    0.0100    0.0100    0.0100    0.0100    0.0100    0.0100    0.0100    0.0100
    0.0100    0.0100    0.0100    0.0100    0.0100    0.0100    0.0100    0.0100
    0.0100    0.0100    0.0100    0.0100    0.0100    0.0100    0.0100    0.0100
    0.0100    0.0100    0.0100    0.0100    0.0100    0.0100    0.0100    0.0100
    0.0100    0.0100    0.0100    0.0100    0.0100    0.0100    0.0100    0.0100
    0.0100    0.0100    0.0100    0.0100    0.0100    0.0100    0.0100    0.0100
    0.0100    0.0100    0.0100    0.0100    0.0100    0.0100    0.0100    0.0100
    0.0100    0.0100    0.0100    0.0100    0.0100    0.0100    0.0100    0.0100
    0.0100    0.0100    0.0100    0.0100    0.0100    0.0100    0.0100    0.0100
    0.0100    0.0100    0.0100    0.0100    0.0100    0.0100    0.0100    0.0100
    0.0100    0.0100    0.0100    0.0100    0.0100    0.0100    0.0100    0.0100
    0.0100    0.0100    0.0100    0.0100    0.0100    0.0100    0.0100    0.0100
    0.0100    0.0100    0.0100    0.0100    0.0100    0.0100    0.0100    0.0100
    0.0100    0.0100    0.0100    0.0100    0.0100    0.0100    0.0100    0.0100
    0.0100    0.0100    0.0100    0.0100    0.0100    0.0100    0.0100    0.0100
    0.0100    0.0100    0.0100    0.0100    0.0100    0.0100    0.0100    0.0100
    0.0100    0.0100    0.0100    0.0100    0.0100    0.0100    0.0100    0.0100
    0.0100    0.0100    0.0100    0.0100    0.0100    0.0100    0.0100    0.0100
    0.0100    0.0100    0.0100    0.0100    0.0100    0.0100    0.0100    0.0100
    0.0100    0.0100    0.0100    0.0100    0.0100    0.0100    0.0100    0.0100
    0.0100    0.0100    0.0100    0.0100    0.0100    0.0100    0.0100    0.0100
    0.0100    0.0100    0.0100    0.0100    0.0100    0.0100    0.0100    0.0100
    0.0100    0.0100    0.0100    0.0100    0.0100    0.0100    0.0100    0.0100
    0.0100    0.0100    0.0100    0.0100    0.0100    0.0100    0.0100    0.0100
    0.0100    0.0100    0.0100    0.0100    0.0100    0.0100    0.0100    0.0100
    0.0100    0.0100    0.0100    0.0100    0.0100    0.0100    0.0100    0.0100
    0.0100    0.0100    0.0100    0.0100    0.0100    0.0100    0.0100    0.0100
    0.0100    0.0100    0.0100    0.0100    0.0100    0.0100    0.0100    0.0100
    0.0100    0.0100    0.0100    0.0100    0.0100    0.0100    0.0100    0.0100
    0.0100    0.0100    0.0100    0.0100    0.0100    0.0100    0.0100    0.0100
    0.0100    0.0100    0.0100    0.0100    0.0100    0.0100    0.0100    0.0100
    0.0100    0.0100    0.0100    0.0100    0.0100    0.0100    0.0100    0.0100
    0.0100    0.0100    0.0100    0.0100    0.0100    0.0100    0.0100    0.0100
    0.0100    0.0100    0.0100    0.0100    0.0100    0.0100    0.0100    0.0100
    0.0100    0.0100    0.0100    0.0100    0.0100    0.0100    0.0100    0.0100
    0.0100    0.0100    0.0100    0.0100    0.0100    0.0100    0.0100    0.0100
    0.0100    0.0100    0.0100    0.0100    0.0100    0.0100    0.0100    0.0100
    0.0100    0.0100    0.0100    0.0100    0.0100    0.0100    0.0100    0.0100
    0.0100    0.0100    0.0100    0.0100    0.0100    0.0100    0.0100    0.0100
    0.0100    0.0100    0.0100    0.0100    0.0100    0.0100    0.0100    0.0100
    0.0100    0.0100    0.0100    0.0100    0.0100    0.0100    0.0100    0.0100
    0.0100    0.0100    0.0100    0.0100    0.0100    0.0100    0.0100    0.0100
    0.0100    0.0100    0.0100    0.0100    0.0100    0.0100    0.0100    0.0100
    0.0100    0.0100    0.0100    0.0100    0.0100    0.0100    0.0100    0.0100
    0.0100    0.0100    0.0100    0.0100    0.0100    0.0100    0.0100    0.0100
    0.0100    0.0100    0.0100    0.0100    0.0100    0.0100    0.0100    0.0100
    0.0100    0.0100    0.0100    0.0100    0.0100    0.0100    0.0100    0.0100
    0.0100    0.0100    0.0100    0.0100    0.0100    0.0100    0.0100    0.0100
    0.0100    0.0100    0.0100    0.0100    0.0100    0.0100    0.0100    0.0100
    0.0100    0.0100    0.0100    0.0100    0.0100    0.0100    0.0100    0.0100
    0.0100    0.0100    0.0100    0.0100    0.0100    0.0100    0.0100    0.0100
    0.0100    0.0100    0.0100    0.0100    0.0100    0.0100    0.0100    0.0100
    0.0100    0.0100    0.0100    0.0100    0.0100    0.0100    0.0100    0.0100
   </PP_RAB>
 </PP_MESH>
  <PP_LOCAL type="real"  size=" 728" columns="4">
   -8.8965067674E+00   -8.8951250168E+00   -8.8909862493E+00   -8.8841099302E+00
   -8.8745280086E+00   -8.8622842333E+00   -8.8474332288E+00   -8.8300393760E+00
   -8.8101755456E+00   -8.7879217326E+00   -8.7633636435E+00   -8.7365912839E+00
   -8.7076975890E+00   -8.6767771367E+00   -8.6439249699E+00   -8.6092355523E+00
   -8.5728018697E+00   -8.5347146834E+00   -8.4950619350E+00   -8.4539282966E+00
   -8.4113948549E+00   -8.3675389176E+00   -8.3224339238E+00   -8.2761494442E+00
   -8.2287512539E+00   -8.1803014614E+00   -8.1308586802E+00   -8.0804782297E+00
   -8.0292123536E+00   -7.9771104472E+00   -7.9242192848E+00   -7.8705832426E+00
   -7.8162445112E+00   -7.7612432950E+00   -7.7056179976E+00   -7.6494053905E+00
   -7.5926407656E+00   -7.5353580732E+00   -7.4775900436E+00   -7.4193682965E+00
   -7.3607234379E+00   -7.3016851465E+00   -7.2422822510E+00   -7.1825428008E+00
   -7.1224941308E+00   -7.0621629211E+00   -7.0015752548E+00   -6.9407566735E+00
   -6.8797322310E+00   -6.8185265476E+00   -6.7571638640E+00   -6.6956680956E+00
   -6.6340628876E+00   -6.5723716699E+00   -6.5106177129E+00   -6.4488241819E+00
   -6.3870141915E+00   -6.3252108579E+00   -6.2634373484E+00   -6.2017169282E+00
   -6.1400730028E+00   -6.0785291542E+00   -6.0171091725E+00   -5.9558370792E+00
   -5.8947371438E+00   -5.8338338907E+00   -5.7731520983E+00   -5.7127167878E+00
   -5.6525532027E+00   -5.5926867783E+00   -5.5331431011E+00   -5.4739478596E+00
   -5.4151267845E+00   -5.3567055816E+00   -5.2987098556E+00   -5.2411650273E+00
   -5.1840962441E+00   -5.1275282853E+00   -5.0714854624E+00   -5.0159915170E+00
   -4.9610695150E+00   -4.9067417404E+00   -4.8530295886E+00   -4.7999534597E+00
   -4.7475326535E+00   -4.6957852669E+00   -4.6447280934E+00   -4.5943765261E+00
   -4.5447444647E+00   -4.4958442253E+00   -4.4476864543E+00   -4.4002800461E+00
   -4.3536320637E+00   -4.3077476611E+00   -4.2626300088E+00   -4.2182802190E+00
   -4.1746972709E+00   -4.1318779350E+00   -4.0898166936E+00   -4.0485056580E+00
   -4.0079344815E+00   -3.9680902930E+00   -3.9289587290E+00   -3.8905260247E+00
   -3.8527793847E+00   -3.8157068830E+00   -3.7792973539E+00   -3.7435402768E+00
   -3.7084256525E+00   -3.6739438746E+00   -3.6400855949E+00   -3.6068415874E+00
   -3.5742026105E+00   -3.5421592727E+00   -3.5107019030E+00   -3.4798204304E+00
   -3.4495042755E+00   -3.4197422586E+00   -3.3905225259E+00   -3.3618324964E+00
   -3.3336588223E+00   -3.3059874202E+00   -3.2788035136E+00   -3.2520916355E+00
   -3.2258357371E+00   -3.2000191812E+00   -3.1746219819E+00   -3.1496246312E+00
   -3.1250179906E+00   -3.1007928268E+00   -3.0769403631E+00   -3.0534520629E+00
   -3.0303196497E+00   -3.0075350956E+00   -2.9850906128E+00   -2.9629786440E+00
   -2.9411918541E+00   -2.9197231223E+00   -2.8985655343E+00   -2.8777123745E+00
   -2.8571571194E+00   -2.8368934305E+00   -2.8169151479E+00   -2.7972162839E+00
   -2.7777910172E+00   -2.7586336871E+00   -2.7397387881E+00   -2.7211009642E+00
   -2.7027150044E+00   -2.6845758376E+00   -2.6666785279E+00   -2.6490182701E+00
   -2.6315903856E+00   -2.6143903178E+00   -2.5974136288E+00   -2.5806559951E+00
   -2.5641132041E+00   -2.5477811504E+00   -2.5316558328E+00   -2.5157333504E+00
   -2.5000099001E+00   -2.4844817732E+00   -2.4691453526E+00   -2.4539971099E+00
   -2.4390336030E+00   -2.4242514728E+00   -2.4096474415E+00   -2.3952183098E+00
   -2.3809609544E+00   -2.3668723261E+00   -2.3529494472E+00   -2.3391894100E+00
   -2.3255893742E+00   -2.3121465651E+00   -2.2988582720E+00   -2.2857218461E+00
   -2.2727346987E+00   -2.2598942997E+00   -2.2471981758E+00   -2.2346439090E+00
   -2.2222291351E+00   -2.2099515419E+00   -2.1978088683E+00   -2.1857989026E+00
   -2.1739194810E+00   -2.1621684866E+00   -2.1505438480E+00   -2.1390435381E+00
   -2.1276655730E+00   -2.1164080107E+00   -2.1052689501E+00   -2.0942465300E+00
   -2.0833389278E+00   -2.0725443589E+00   -2.0618610753E+00   -2.0512873649E+00
   -2.0408215507E+00   -2.0304619895E+00   -2.0202070715E+00   -2.0100552191E+00
   -2.0000048863E+00   -1.9900545580E+00   -1.9802027490E+00   -1.9704480032E+00
   -1.9607888933E+00   -1.9512240199E+00   -1.9417520104E+00   -1.9323715190E+00
   -1.9230812258E+00   -1.9138798361E+00   -1.9047660798E+00   -1.8957387110E+00
   -1.8867965071E+00   -1.8779382687E+00   -1.8691628187E+00   -1.8604690020E+00
   -1.8518556846E+00   -1.8433217537E+00   -1.8348661169E+00   -1.8264877015E+00
   -1.8181854546E+00   -1.8099583423E+00   -1.8018053491E+00   -1.7937254780E+00
   -1.7857177496E+00   -1.7777812020E+00   -1.7699148903E+00   -1.7621178863E+00
   -1.7543892781E+00   -1.7467281695E+00   -1.7391336803E+00   -1.7316049451E+00
   -1.7241411137E+00   -1.7167413504E+00   -1.7094048338E+00   -1.7021307565E+00
   -1.6949183248E+00   -1.6877667583E+00   -1.6806752898E+00   -1.6736431649E+00
   -1.6666696418E+00   -1.6597539910E+00   -1.6528954951E+00   -1.6460934484E+00
   -1.6393471569E+00   -1.6326559378E+00   -1.6260191195E+00   -1.6194360413E+00
   -1.6129060530E+00   -1.6064285151E+00   -1.6000027980E+00   -1.5936282824E+00
   -1.5873043588E+00   -1.5810304272E+00   -1.5748058971E+00   -1.5686301873E+00
   -1.5625027258E+00   -1.5564229492E+00   -1.5503903031E+00   -1.5444042416E+00
   -1.5384642271E+00   -1.5325697303E+00   -1.5267202301E+00   -1.5209152131E+00
   -1.5151541738E+00   -1.5094366144E+00   -1.5037620445E+00   -1.4981299810E+00
   -1.4925399481E+00   -1.4869914770E+00   -1.4814841060E+00   -1.4760173800E+00
   -1.4705908507E+00   -1.4652040764E+00   -1.4598566219E+00   -1.4545480581E+00
   -1.4492779623E+00   -1.4440459178E+00   -1.4388515142E+00   -1.4336943465E+00
   -1.4285740158E+00   -1.4234901289E+00   -1.4184422980E+00   -1.4134301409E+00
   -1.4084532808E+00   -1.4035113461E+00   -1.3986039704E+00   -1.3937307924E+00
   -1.3888914561E+00   -1.3840856099E+00   -1.3793129076E+00   -1.3745730073E+00
   -1.3698655721E+00   -1.3651902696E+00   -1.3605467718E+00   -1.3559347554E+00
   -1.3513539011E+00   -1.3468038944E+00   -1.3422844246E+00   -1.3377951853E+00
   -1.3333358742E+00   -1.3289061930E+00   -1.3245058474E+00   -1.3201345469E+00
   -1.3157920049E+00   -1.3114779385E+00   -1.3071920686E+00   -1.3029341195E+00
   -1.2987038194E+00   -1.2945008997E+00   -1.2903250956E+00   -1.2861761454E+00
   -1.2820537909E+00   -1.2779577773E+00   -1.2738878528E+00   -1.2698437690E+00
   -1.2658252806E+00   -1.2618321453E+00   -1.2578641239E+00   -1.2539209803E+00
   -1.2500024812E+00   -1.2461083963E+00   -1.2422384981E+00   -1.2383925621E+00
   -1.2345703663E+00   -1.2307716915E+00   -1.2269963214E+00   -1.2232440421E+00
   -1.2195146424E+00   -1.2158079137E+00   -1.2121236499E+00   -1.2084616474E+00
   -1.2048217051E+00   -1.2012036241E+00   -1.1976072081E+00   -1.1940322632E+00
   -1.1904785975E+00   -1.1869460218E+00   -1.1834343487E+00   -1.1799433933E+00
   -1.1764729729E+00   -1.1730229066E+00   -1.1695930161E+00   -1.1661831248E+00
   -1.1627930584E+00   -1.1594226444E+00   -1.1560717124E+00   -1.1527400940E+00
   -1.1494276228E+00   -1.1461341340E+00   -1.1428594651E+00   -1.1396034552E+00
   -1.1363659452E+00   -1.1331467779E+00   -1.1299457978E+00   -1.1267628514E+00
   -1.1235977866E+00   -1.1204504531E+00   -1.1173207024E+00   -1.1142083875E+00
   -1.1111133631E+00   -1.1080354856E+00   -1.1049746128E+00   -1.1019306042E+00
   -1.0989033209E+00   -1.0958926253E+00   -1.0928983815E+00   -1.0899204550E+00
   -1.0869587128E+00   -1.0840130233E+00   -1.0810832564E+00   -1.0781692832E+00
   -1.0752709765E+00   -1.0723882102E+00   -1.0695208597E+00   -1.0666688017E+00
   -1.0638319141E+00   -1.0610100762E+00   -1.0582031686E+00   -1.0554110730E+00
   -1.0526336727E+00   -1.0498708518E+00   -1.0471224958E+00   -1.0443884915E+00
   -1.0416687268E+00   -1.0389630906E+00   -1.0362714731E+00   -1.0335937658E+00
   -1.0309298610E+00   -1.0282796524E+00   -1.0256430345E+00   -1.0230199030E+00
   -1.0204101548E+00   -1.0178136877E+00   -1.0152304006E+00   -1.0126601934E+00
   -1.0101029669E+00   -1.0075586232E+00   -1.0050270650E+00   -1.0025081963E+00
   -1.0000019219E+00   -9.9750814755E-01   -9.9502678000E-01   -9.9255772687E-01
   -9.9010089673E-01   -9.8765619904E-01   -9.8522354415E-01   -9.8280284330E-01
   -9.8039400858E-01   -9.7799695296E-01   -9.7561159025E-01   -9.7323783511E-01
   -9.7087560301E-01   -9.6852481025E-01   -9.6618537394E-01   -9.6385721198E-01
   -9.6154024308E-01   -9.5923438670E-01   -9.5693956309E-01   -9.5465569327E-01
   -9.5238269898E-01   -9.5012050273E-01   -9.4786902776E-01   -9.4562819803E-01
   -9.4339793823E-01   -9.4117817374E-01   -9.3896883065E-01   -9.3676983575E-01
   -9.3458111649E-01   -9.3240260104E-01   -9.3023421819E-01   -9.2807589741E-01
   -9.2592756884E-01   -9.2378916325E-01   -9.2166061204E-01   -9.1954184724E-01
   -9.1743280154E-01   -9.1533340820E-01   -9.1324360111E-01   -9.1116331476E-01
   -9.0909248425E-01   -9.0703104524E-01   -9.0497893399E-01   -9.0293608734E-01
   -9.0090244269E-01   -8.9887793800E-01   -8.9686251179E-01   -8.9485610313E-01
   -8.9285865165E-01   -8.9087009749E-01   -8.8889038133E-01   -8.8691944440E-01
   -8.8495722841E-01   -8.8300367562E-01   -8.8105872878E-01   -8.7912233115E-01
   -8.7719442648E-01   -8.7527495902E-01   -8.7336387351E-01   -8.7146111517E-01
   -8.6956662968E-01   -8.6768036321E-01   -8.6580226239E-01   -8.6393227431E-01
   -8.6207034652E-01   -8.6021642702E-01   -8.5837046425E-01   -8.5653240710E-01
   -8.5470220490E-01   -8.5287980739E-01   -8.5106516476E-01   -8.4925822761E-01
   -8.4745894698E-01   -8.4566727430E-01   -8.4388316142E-01   -8.4210656059E-01
   -8.4033742448E-01   -8.3857570612E-01   -8.3682135897E-01   -8.3507433686E-01
   -8.3333459401E-01   -8.3160208502E-01   -8.2987676487E-01   -8.2815858890E-01
   -8.2644751283E-01   -8.2474349275E-01   -8.2304648510E-01   -8.2135644668E-01
   -8.1967333466E-01   -8.1799710653E-01   -8.1632772015E-01   -8.1466513372E-01
   -8.1300930577E-01   -8.1136019519E-01   -8.0971776116E-01   -8.0808196325E-01
   -8.0645276129E-01   -8.0483011548E-01   -8.0321398633E-01   -8.0160433466E-01
   -8.0000112160E-01   -7.9840430859E-01   -7.9681385740E-01   -7.9522973008E-01
   -7.9365188898E-01   -7.9208029676E-01   -7.9051491637E-01   -7.8895571107E-01
   -7.8740264437E-01   -7.8585568010E-01   -7.8431478237E-01   -7.8277991556E-01
   -7.8125104432E-01   -7.7972813361E-01   -7.7821114862E-01   -7.7670005485E-01
   -7.7519481804E-01   -7.7369540420E-01   -7.7220177961E-01   -7.7071391081E-01
   -7.6923176459E-01   -7.6775530800E-01   -7.6628450834E-01   -7.6481933316E-01
   -7.6335975026E-01   -7.6190572769E-01   -7.6045723373E-01   -7.5901423691E-01
   -7.5757670599E-01   -7.5614460998E-01   -7.5471791812E-01   -7.5329659987E-01
   -7.5188062493E-01   -7.5046996323E-01   -7.4906458492E-01   -7.4766446036E-01
   -7.4626956016E-01   -7.4487985513E-01   -7.4349531630E-01   -7.4211591491E-01
   -7.4074162243E-01   -7.3937241052E-01   -7.3800825107E-01   -7.3664911615E-01
   -7.3529497806E-01   -7.3394580930E-01   -7.3260158256E-01   -7.3126227073E-01
   -7.2992784691E-01   -7.2859828439E-01   -7.2727355666E-01   -7.2595363738E-01
   -7.2463850044E-01   -7.2332811987E-01   -7.2202246993E-01   -7.2072152505E-01
   -7.1942525983E-01   -7.1813364908E-01   -7.1684666777E-01   -7.1556429105E-01
   -7.1428649426E-01   -7.1301325291E-01   -7.1174454267E-01   -7.1048033941E-01
   -7.0922061916E-01   -7.0796535809E-01   -7.0671453260E-01   -7.0546811919E-01
   -7.0422609458E-01   -7.0298843561E-01   -7.0175511932E-01   -7.0052612289E-01
   -6.9930142366E-01   -6.9808099913E-01   -6.9686482697E-01   -6.9565288497E-01
   -6.9444515113E-01   -6.9324160354E-01   -6.9204222049E-01   -6.9084698040E-01
   -6.8965586184E-01   -6.8846884352E-01   -6.8728590432E-01   -6.8610702323E-01
   -6.8493217943E-01   -6.8376135219E-01   -6.8259452096E-01   -6.8143166532E-01
   -6.8027276498E-01   -6.7911779980E-01   -6.7796674976E-01   -6.7681959500E-01
   -6.7567631577E-01   -6.7453689247E-01   -6.7340130562E-01   -6.7226953588E-01
   -6.7114156404E-01   -6.7001737101E-01   -6.6889693783E-01   -6.6778024568E-01
   -6.6666727584E-01   -6.6555800975E-01   -6.6445242893E-01   -6.6335051506E-01
   -6.6225224992E-01   -6.6115761542E-01   -6.6006659359E-01   -6.5897916657E-01
   -6.5789531662E-01   -6.5681502612E-01   -6.5573827757E-01   -6.5466505358E-01
   -6.5359533687E-01   -6.5252911027E-01   -6.5146635673E-01   -6.5040705931E-01
   -6.4935120118E-01   -6.4829876562E-01   -6.4724973601E-01   -6.4620409584E-01
   -6.4516182871E-01   -6.4412291834E-01   -6.4308734852E-01   -6.4205510318E-01
   -6.4102616632E-01   -6.4000052208E-01   -6.3897815466E-01   -6.3795904840E-01
   -6.3694318770E-01   -6.3593055710E-01   -6.3492114121E-01   -6.3391492475E-01
   -6.3291189253E-01   -6.3191202946E-01   -6.3091532054E-01   -6.2992175087E-01