<UPF version="2.0.1">
  <PP_INFO>

 This pseudopotential file has been produced using the code
 ONCVPSP  (Optimized Norm-Conservinng Vanderbilt PSeudopotential)
 scalar-relativistic version 4.0.1 06/04/2019 by D. R. Hamann
 The code is available through a link at URL www.mat-simresearch.com.
 Documentation with the package provides a full discription of the
 input data below.


 While it is not required under the terms of the GNU GPL, it is
 suggested that you cite D. R. Hamann, Phys. Rev. B 88, 085117 (2013)
 in any publication using these pseudopotentials.

    <PP_INPUTFILE>
# ATOM AND REFERENCE CONFIGURATION
# atsym  z   nc   nv     iexc    psfile
  He  2.00    0    1       4      upf
#
#   n    l    f        energy (Ha)
    1    0    2.00
#
# PSEUDOPOTENTIAL AND OPTIMIZATION
# lmax
    1
#
#   l,   rc,      ep,       ncon, nbas, qcut
    0   1.25000  -0.58000    4    8   9.40000
    1   1.13000   0.05000    4    7   9.40000
#
# LOCAL POTENTIAL
# lloc, lpopt,  rc(5),   dvloc0
    4    5   1.00000      0.00000
#
# VANDERBILT-KLEINMAN-BYLANDER PROJECTORs
# l, nproj, debl
    0    2   1.00000
    1    1   1.00000
#
# MODEL CORE CHARGE
# icmod, fcfact, rcfact
    0   0.00000   0.00000
#
# LOG DERIVATIVE ANALYSIS
# epsh1, epsh2, depsh
  -12.00   12.00    0.02
#
# OUTPUT GRID
# rlmax, drl
    6.00    0.01
#
# TEST CONFIGURATIONS
# ncnf
    0
# nvcnf
#   n    l    f
    </PP_INPUTFILE>
  </PP_INFO>
  <!--                               -->
  <!-- END OF HUMAN READABLE SECTION -->
  <!--                               -->
    <PP_HEADER
       generated="Generated using ONCVPSP code by D. R. Hamann"
       author="anonymous"
       date="220414"
       comment=""
       element="He"
       pseudo_type="NC"
       relativistic="scalar"
       is_ultrasoft="F"
       is_paw="F"
       is_coulomb="F"
       has_so="F"
       has_wfc="F"
       has_gipaw="F"
       core_correction="F"
       functional="PBE"
       z_valence="    2.00"
       total_psenergy="  -5.71879795186E+00"
       rho_cutoff="   7.27000000000E+00"
       l_max="1"
       l_local="-1"
       mesh_size="   728"
       number_of_wfc="1"
       number_of_proj="3"/>
 <PP_MESH>
   <PP_R type="real"  size=" 728" columns="8">
    0.0000    0.0100    0.0200    0.0300    0.0400    0.0500    0.0600    0.0700
    0.0800    0.0900    0.1000    0.1100    0.1200    0.1300    0.1400    0.1500
    0.1600    0.1700    0.1800    0.1900    0.2000    0.2100    0.2200    0.2300
    0.2400    0.2500    0.2600    0.2700    0.2800    0.2900    0.3000    0.3100
    0.3200    0.3300    0.3400    0.3500    0.3600    0.3700    0.3800    0.3900
    0.4000    0.4100    0.4200    0.4300    0.4400    0.4500    0.4600    0.4700
    0.4800    0.4900    0.5000    0.5100    0.5200    0.5300    0.5400    0.5500
    0.5600    0.5700    0.5800    0.5900    0.6000    0.6100    0.6200    0.6300
    0.6400    0.6500    0.6600    0.6700    0.6800    0.6900    0.7000    0.7100
    0.7200    0.7300    0.7400    0.7500    0.7600    0.7700    0.7800    0.7900
    0.8000    0.8100    0.8200    0.8300    0.8400    0.8500    0.8600    0.8700
    0.8800    0.8900    0.9000    0.9100    0.9200    0.9300    0.9400    0.9500
    0.9600    0.9700    0.9800    0.9900    1.0000    1.0100    1.0200    1.0300
    1.0400    1.0500    1.0600    1.0700    1.0800    1.0900    1.1000    1.1100
    1.1200    1.1300    1.1400    1.1500    1.1600    1.1700    1.1800    1.1900
    1.2000    1.2100    1.2200    1.2300    1.2400    1.2500    1.2600    1.2700
    1.2800    1.2900    1.3000    1.3100    1.3200    1.3300    1.3400    1.3500
    1.3600    1.3700    1.3800    1.3900    1.4000    1.4100    1.4200    1.4300
    1.4400    1.4500    1.4600    1.4700    1.4800    1.4900    1.5000    1.5100
    1.5200    1.5300    1.5400    1.5500    1.5600    1.5700    1.5800    1.5900
    1.6000    1.6100    1.6200    1.6300    1.6400    1.6500    1.6600    1.6700
    1.6800    1.6900    1.7000    1.7100    1.7200    1.7300    1.7400    1.7500
    1.7600    1.7700    1.7800    1.7900    1.8000    1.8100    1.8200    1.8300
    1.8400    1.8500    1.8600    1.8700    1.8800    1.8900    1.9000    1.9100
    1.9200    1.9300    1.9400    1.9500    1.9600    1.9700    1.9800    1.9900
    2.0000    2.0100    2.0200    2.0300    2.0400    2.0500    2.0600    2.0700
    2.0800    2.0900    2.1000    2.1100    2.1200    2.1300    2.1400    2.1500
    2.1600    2.1700    2.1800    2.1900    2.2000    2.2100    2.2200    2.2300
    2.2400    2.2500    2.2600    2.2700    2.2800    2.2900    2.3000    2.3100
    2.3200    2.3300    2.3400    2.3500    2.3600    2.3700    2.3800    2.3900
    2.4000    2.4100    2.4200    2.4300    2.4400    2.4500    2.4600    2.4700
    2.4800    2.4900    2.5000    2.5100    2.5200    2.5300    2.5400    2.5500
    2.5600    2.5700    2.5800    2.5900    2.6000    2.6100    2.6200    2.6300
    2.6400    2.6500    2.6600    2.6700    2.6800    2.6900    2.7000    2.7100
    2.7200    2.7300    2.7400    2.7500    2.7600    2.7700    2.7800    2.7900
    2.8000    2.8100    2.8200    2.8300    2.8400    2.8500    2.8600    2.8700
    2.8800    2.8900    2.9000    2.9100    2.9200    2.9300    2.9400    2.9500
    2.9600    2.9700    2.9800    2.9900    3.0000    3.0100    3.0200    3.0300
    3.0400    3.0500    3.0600    3.0700    3.0800    3.0900    3.1000    3.1100
    3.1200    3.1300    3.1400    3.1500    3.1600    3.1700    3.1800    3.1900
    3.2000    3.2100    3.2200    3.2300    3.2400    3.2500    3.2600    3.2700
    3.2800    3.2900    3.3000    3.3100    3.3200    3.3300    3.3400    3.3500
    3.3600    3.3700    3.3800    3.3900    3.4000    3.4100    3.4200    3.4300
    3.4400    3.4500    3.4600    3.4700    3.4800    3.4900    3.5000    3.5100
    3.5200    3.5300    3.5400    3.5500    3.5600    3.5700    3.5800    3.5900
    3.6000    3.6100    3.6200    3.6300    3.6400    3.6500    3.6600    3.6700
    3.6800    3.6900    3.7000    3.7100    3.7200    3.7300    3.7400    3.7500
    3.7600    3.7700    3.7800    3.7900    3.8000    3.8100    3.8200    3.8300
    3.8400    3.8500    3.8600    3.8700    3.8800    3.8900    3.9000    3.9100
    3.9200    3.9300    3.9400    3.9500    3.9600    3.9700    3.9800    3.9900
    4.0000    4.0100    4.0200    4.0300    4.0400    4.0500    4.0600    4.0700
    4.0800    4.0900    4.1000    4.1100    4.1200    4.1300    4.1400    4.1500
    4.1600    4.1700    4.1800    4.1900    4.2000    4.2100    4.2200    4.2300
    4.2400    4.2500    4.2600    4.2700    4.2800    4.2900    4.3000    4.3100
    4.3200    4.3300    4.3400    4.3500    4.3600    4.3700    4.3800    4.3900
    4.4000    4.4100    4.4200    4.4300    4.4400    4.4500    4.4600    4.4700
    4.4800    4.4900    4.5000    4.5100    4.5200    4.5300    4.5400    4.5500
    4.5600    4.5700    4.5800    4.5900    4.6000    4.6100    4.6200    4.6300
    4.6400    4.6500    4.6600    4.6700    4.6800    4.6900    4.7000    4.7100
    4.7200    4.7300    4.7400    4.7500    4.7600    4.7700    4.7800    4.7900
    4.8000    4.8100    4.8200    4.8300    4.8400    4.8500    4.8600    4.8700
    4.8800    4.8900    4.9000    4.9100    4.9200    4.9300    4.9400    4.9500
    4.9600    4.9700    4.9800    4.9900    5.0000    5.0100    5.0200    5.0300
    5.0400    5.0500    5.0600    5.0700    5.0800    5.0900    5.1000    5.1100
    5.1200    5.1300    5.1400    5.1500    5.1600    5.1700    5.1800    5.1900
    5.2000    5.2100    5.2200    5.2300    5.2400    5.2500    5.2600    5.2700
    5.2800    5.2900    5.3000    5.3100    5.3200    5.3300    5.3400    5.3500
    5.3600    5.3700    5.3800    5.3900    5.4000    5.4100    5.4200    5.4300
    5.4400    5.4500    5.4600    5.4700    5.4800    5.4900    5.5000    5.5100
    5.5200    5.5300    5.5400    5.5500    5.5600    5.5700    5.5800    5.5900
    5.6000    5.6100    5.6200    5.6300    5.6400    5.6500    5.6600    5.6700
    5.6800    5.6900    5.7000    5.7100    5.7200    5.7300    5.7400    5.7500
    5.7600    5.7700    5.7800    5.7900    5.8000    5.8100    5.8200    5.8300
    5.8400    5.8500    5.8600    5.8700    5.8800    5.8900    5.9000    5.9100
    5.9200    5.9300    5.9400    5.9500    5.9600    5.9700    5.9800    5.9900
    6.0000    6.0100    6.0200    6.0300    6.0400    6.0500    6.0600    6.0700
    6.0800    6.0900    6.1000    6.1100    6.1200    6.1300    6.1400    6.1500
    6.1600    6.1700    6.1800    6.1900    6.2000    6.2100    6.2200    6.2300
    6.2400    6.2500    6.2600    6.2700    6.2800    6.2900    6.3000    6.3100
    6.3200    6.3300    6.3400    6.3500    6.3600    6.3700    6.3800    6.3900
    6.4000    6.4100    6.4200    6.4300    6.4400    6.4500    6.4600    6.4700
    6.4800    6.4900    6.5000    6.5100    6.5200    6.5300    6.5400    6.5500
    6.5600    6.5700    6.5800    6.5900    6.6000    6.6100    6.6200    6.6300
    6.6400    6.6500    6.6600    6.6700    6.6800    6.6900    6.7000    6.7100
    6.7200    6.7300    6.7400    6.7500    6.7600    6.7700    6.7800    6.7900
    6.8000    6.8100    6.8200    6.8300    6.8400    6.8500    6.8600    6.8700
    6.8800    6.8900    6.9000    6.9100    6.9200    6.9300    6.9400    6.9500
    6.9600    6.9700    6.9800    6.9900    7.0000    7.0100    7.0200    7.0300
    7.0400    7.0500    7.0600    7.0700    7.0800    7.0900    7.1000    7.1100
    7.1200    7.1300    7.1400    7.1500    7.1600    7.1700    7.1800    7.1900
    7.2000    7.2100    7.2200    7.2300    7.2400    7.2500    7.2600    7.2700
   </PP_R>
   <PP_RAB type="real"  size=" 728" columns="8">
    0.0100    0.0100    0.0100    0.0100    0.0100    0.0100    0.0100    0.0100
    0.0100    0.0100    0.0100    0.0100    0.0100    0.0100    0.0100    0.0100
    0.0100    0.0100    0.0100    0.0100    0.0100    0.0100    0.0100    0.0100
    0.0100    0.0100    0.0100    0.0100    0.0100    0.0100    0.0100    0.0100
    0.0100    0.0100    0.0100    0.0100    0.0100    0.0100    0.0100    0.0100
    0.0100    0.0100    0.0100    0.0100    0.0100    0.0100    0.0100    0.0100
    0.0100    0.0100    0.0100    0.0100    0.0100    0.0100    0.0100    0.0100
    0.0100    0.0100    0.0100    0.0100    0.0100    0.0100    0.0100    0.0100
    0.0100    0.0100    0.0100    0.0100    0.0100    0.0100    0.0100    0.0100
    0.0100    0.0100    0.0100    0.0100    0.0100    0.0100    0.0100    0.0100
    0.0100    0.0100    0.0100    0.0100    0.0100    0.0100    0.0100    0.0100
    0.0100    0.0100    0.0100    0.0100    0.0100    0.0100    0.0100    0.0100
    0.0100    0.0100    0.0100    0.0100    0.0100    0.0100    0.0100    0.0100
    0.0100    0.0100    0.0100    0.0100    0.0100    0.0100    0.0100    0.0100
    0.0100    0.0100    0.0100    0.0100    0.0100    0.0100    0.0100    0.0100
    0.0100    0.0100    0.0100    0.0100    0.0100    0.0100    0.0100    0.0100
    0.0100    0.0100    0.0100    0.0100    0.0100    0.0100    0.0100    0.0100
    0.0100    0.0100    0.0100    0.0100    0.0100    0.0100    0.0100    0.0100
    0.0100    0.0100    0.0100    0.0100    0.0100    0.0100    0.0100    0.0100
    0.0100    0.0100    0.0100    0.0100    0.0100    0.0100    0.0100    0.0100
    0.0100    0.0100    0.0100    0.0100    0.0100    0.0100    0.0100    0.0100
    0.0100    0.0100    0.0100    0.0100    0.0100    0.0100    0.0100    0.0100
    0.0100    0.0100    0.0100    0.0100    0.0100    0.0100    0.0100    0.0100
    0.0100    0.0100    0.0100    0.0100    0.0100    0.0100    0.0100    0.0100
    0.0100    0.0100    0.0100    0.0100    0.0100    0.0100    0.0100    0.0100
    0.0100    0.0100    0.0100    0.0100    0.0100    0.0100    0.0100    0.0100
    0.0100    0.0100    0.0100    0.0100    0.0100    0.0100    0.0100    0.0100
    0.0100    0.0100    0.0100    0.0100    0.0100    0.0100    0.0100    0.0100
    0.0100    0.0100    0.0100    0.0100    0.0100    0.0100    0.0100    0.0100
    0.0100    0.0100    0.0100    0.0100    0.0100    0.0100    0.0100    0.0100
    0.0100    0.0100    0.0100    0.0100    0.0100    0.0100    0.0100    0.0100
    0.0100    0.0100    0.0100    0.0100    0.0100    0.0100    0.0100    0.0100
    0.0100    0.0100    0.0100    0.0100    0.0100    0.0100    0.0100    0.0100
    0.0100    0.0100    0.0100    0.0100    0.0100    0.0100    0.0100    0.0100
    0.0100    0.0100    0.0100    0.0100    0.0100    0.0100    0.0100    0.0100
    0.0100    0.0100    0.0100    0.0100    0.0100    0.0100    0.0100    0.0100
    0.0100    0.0100    0.0100    0.0100    0.0100    0.0100    0.0100    0.0100
    0.0100    0.0100    0.0100    0.0100    0.0100    0.0100    0.0100    0.0100
    0.0100    0.0100    0.0100    0.0100    0.0100    0.0100    0.0100    0.0100
    0.0100    0.0100    0.0100    0.0100    0.0100    0.0100    0.0100    0.0100
    0.0100    0.0100    0.0100    0.0100    0.0100    0.0100    0.0100    0.0100
    0.0100    0.0100    0.0100    0.0100    0.0100    0.0100    0.0100    0.0100
    0.0100    0.0100    0.0100    0.0100    0.0100    0.0100    0.0100    0.0100
    0.0100    0.0100    0.0100    0.0100    0.0100    0.0100    0.0100    0.0100
    0.0100    0.0100    0.0100    0.0100    0.0100    0.0100    0.0100    0.0100
    0.0100    0.0100    0.0100    0.0100    0.0100    0.0100    0.0100    0.0100
    0.0100    0.0100    0.0100    0.0100    0.0100    0.0100    0.0100    0.0100
    0.0100    0.0100    0.0100    0.0100    0.0100    0.0100    0.0100    0.0100
    0.0100    0.0100    0.0100    0.0100    0.0100    0.0100    0.0100    0.0100
    0.0100    0.0100    0.0100    0.0100    0.0100    0.0100    0.0100    0.0100
    0.0100    0.0100    0.0100    0.0100    0.0100    0.0100    0.0100    0.0100
    0.0100    0.0100    0.0100    0.0100    0.0100    0.0100    0.0100    0.0100
    0.0100    0.0100    0.0100    0.0100    0.0100    0.0100    0.0100    0.0100
    0.0100    0.0100    0.0100    0.0100    0.0100    0.0100    0.0100    0.0100
    0.0100    0.0100    0.0100    0.0100    0.0100    0.0100    0.0100    0.0100
    0.0100    0.0100    0.0100    0.0100    0.0100    0.0100    0.0100    0.0100
    0.0100    0.0100    0.0100    0.0100    0.0100    0.0100    0.0100    0.0100
    0.0100    0.0100    0.0100    0.0100    0.0100    0.0100    0.0100    0.0100
    0.0100    0.0100    0.0100    0.0100    0.0100    0.0100    0.0100    0.0100
    0.0100    0.0100    0.0100    0.0100    0.0100    0.0100    0.0100    0.0100
    0.0100    0.0100    0.0100    0.0100    0.0100    0.0100    0.0100    0.0100
    0.0100    0.0100    0.0100    0.0100    0.0100    0.0100    0.0100    0.0100
    0.0100    0.0100    0.0100    0.0100    0.0100    0.0100    0.0100    0.0100
    0.0100    0.0100    0.0100    0.0100    0.0100    0.0100    0.0100    0.0100
    0.0100    0.0100    0.0100    0.0100    0.0100    0.0100    0.0100    0.0100
    0.0100    0.0100    0.0100    0.0100    0.0100    0.0100    0.0100    0.0100
    0.0100    0.0100    0.0100    0.0100    0.0100    0.0100    0.0100    0.0100
    0.0100    0.0100    0.0100    0.0100    0.0100    0.0100    0.0100    0.0100
    0.0100    0.0100    0.0100    0.0100    0.0100    0.0100    0.0100    0.0100
    0.0100    0.0100    0.0100    0.0100    0.0100    0.0100    0.0100    0.0100
    0.0100    0.0100    0.0100    0.0100    0.0100    0.0100    0.0100    0.0100
    0.0100    0.0100    0.0100    0.0100    0.0100    0.0100    0.0100    0.0100
    0.0100    0.0100    0.0100    0.0100    0.0100    0.0100    0.0100    0.0100
    0.0100    0.0100    0.0100    0.0100    0.0100    0.0100    0.0100    0.0100
    0.0100    0.0100    0.0100    0.0100    0.0100    0.0100    0.0100    0.0100
    0.0100    0.0100    0.0100    0.0100    0.0100    0.0100    0.0100    0.0100
    0.0100    0.0100    0.0100    0.0100    0.0100    0.0100    0.0100    0.0100
    0.0100    0.0100    0.0100    0.0100    0.0100    0.0100    0.0100    0.0100
    0.0100    0.0100    0.0100    0.0100    0.0100    0.0100    0.0100    0.0100
    0.0100    0.0100    0.0100    0.0100    0.0100    0.0100    0.0100    0.0100
    0.0100    0.0100    0.0100    0.0100    0.0100    0.0100    0.0100    0.0100
    0.0100    0.0100    0.0100    0.0100    0.0100    0.0100    0.0100    0.0100
    0.0100    0.0100    0.0100    0.0100    0.0100    0.0100    0.0100    0.0100
    0.0100    0.0100    0.0100    0.0100    0.0100    0.0100    0.0100    0.0100
    0.0100    0.0100    0.0100    0.0100    0.0100    0.0100    0.0100    0.0100
    0.0100    0.0100    0.0100    0.0100    0.0100    0.0100    0.0100    0.0100
    0.0100    0.0100    0.0100    0.0100    0.0100    0.0100    0.0100    0.0100
    0.0100    0.0100    0.0100    0.0100    0.0100    0.0100    0.0100    0.0100
    0.0100    0.0100    0.0100    0.0100    0.0100    0.0100    0.0100    0.0100
    0.0100    0.0100    0.0100    0.0100    0.0100    0.0100    0.0100    0.0100
    0.0100    0.0100    0.0100    0.0100    0.0100    0.0100    0.0100    0.0100
   </PP_RAB>
 </PP_MESH>
  <PP_LOCAL type="real"  size=" 728" columns="4">
   -8.8986982545E+00   -8.8973156583E+00   -8.8931738712E+00   -8.8862925558E+00
   -8.8767037065E+00   -8.8644511350E+00   -8.8495895437E+00   -8.8321834032E+00
   -8.8123056833E+00   -8.7900364846E+00   -8.7654616229E+00   -8.7386712139E+00
   -8.7097583020E+00   -8.6788175704E+00   -8.6459441622E+00   -8.6112326351E+00
   -8.5747760608E+00   -8.5366652787E+00   -8.4969883005E+00   -8.4558298595E+00
   -8.4132710962E+00   -8.3693893643E+00   -8.3242581420E+00   -8.2779470332E+00
   -8.2305218404E+00   -8.1820446950E+00   -8.1325742297E+00   -8.0821657795E+00
   -8.0308716014E+00   -7.9787411018E+00   -7.9258210650E+00   -7.8721558758E+00
   -7.8177877330E+00   -7.7627568491E+00   -7.7071016354E+00   -7.6508588715E+00
   -7.5940638579E+00   -7.5367505538E+00   -7.4789516990E+00   -7.4206989240E+00
   -7.3620228458E+00   -7.3029531552E+00   -7.2435186940E+00   -7.1837475260E+00
   -7.1236670009E+00   -7.0633038154E+00   -7.0026840701E+00   -6.9418333255E+00
   -6.8807766554E+00   -6.8195387017E+00   -6.7581437281E+00   -6.6966156745E+00
   -6.6349782119E+00   -6.5732547980E+00   -6.5114687321E+00   -6.4496432102E+00
   -6.3878013793E+00   -6.3259663891E+00   -6.2641614424E+00   -6.2024098408E+00
   -6.1407350276E+00   -6.0791606237E+00   -6.0177104590E+00   -5.9564085956E+00
   -5.8952793440E+00   -5.8343472700E+00   -5.7736371933E+00   -5.7131741762E+00
   -5.6529835026E+00   -5.5930906475E+00   -5.5335212359E+00   -5.4743009931E+00
   -5.4154556852E+00   -5.3570110510E+00   -5.2989927259E+00   -5.2414261588E+00
   -5.1843365224E+00   -5.1277486178E+00   -5.0716867754E+00   -5.0161747517E+00
   -4.9612356241E+00   -4.9068916843E+00   -4.8531643310E+00   -4.8000739637E+00
   -4.7476398776E+00   -4.6958801606E+00   -4.6448115930E+00   -4.5944495504E+00
   -4.5448079105E+00   -4.4958989632E+00   -4.4477333245E+00   -4.4003198540E+00
   -4.3536655751E+00   -4.3077755984E+00   -4.2626530459E+00   -4.2182989770E+00
   -4.1747123134E+00   -4.1318897630E+00   -4.0898257404E+00   -4.0485122840E+00
   -4.0079389683E+00   -3.9680928436E+00   -3.9289595219E+00   -3.8905252472E+00
   -3.8527772325E+00   -3.8157035582E+00   -3.7792930640E+00   -3.7435352321E+00
   -3.7084200639E+00   -3.6739379507E+00   -3.6400795393E+00   -3.6068355954E+00
   -3.5741968658E+00   -3.5421539440E+00   -3.5106971407E+00   -3.4798163633E+00
   -3.4495010084E+00   -3.4197398693E+00   -3.3905210634E+00   -3.3618319792E+00
   -3.3336592374E+00   -3.3059887251E+00   -3.2788056354E+00   -3.2520944721E+00
   -3.2258391630E+00   -3.2000230143E+00   -3.1746258532E+00   -3.1496284361E+00
   -3.1250217401E+00   -3.1007965221E+00   -3.0769440045E+00   -3.0534556511E+00
   -3.0303231851E+00   -3.0075385790E+00   -2.9850940446E+00   -2.9629820248E+00
   -2.9411951844E+00   -2.9197264026E+00   -2.8985687651E+00   -2.8777155563E+00
   -2.8571602526E+00   -2.8368965157E+00   -2.8169181854E+00   -2.7972192743E+00
   -2.7777939609E+00   -2.7586365846E+00   -2.7397416397E+00   -2.7211037704E+00
   -2.7027177656E+00   -2.6845785543E+00   -2.6666812005E+00   -2.6490208990E+00
   -2.6315929712E+00   -2.6143928606E+00   -2.5974161292E+00   -2.5806584535E+00
   -2.5641156210E+00   -2.5477835262E+00   -2.5316581678E+00   -2.5157356452E+00
   -2.5000121552E+00   -2.4844839890E+00   -2.4691475296E+00   -2.4539992485E+00
   -2.4390357036E+00   -2.4242535360E+00   -2.4096494679E+00   -2.3952202997E+00
   -2.3809629084E+00   -2.3668742446E+00   -2.3529513308E+00   -2.3391912592E+00
   -2.3255911895E+00   -2.3121483471E+00   -2.2988600212E+00   -2.2857235631E+00
   -2.2727363840E+00   -2.2598959538E+00   -2.2471997993E+00   -2.2346455025E+00
   -2.2222306990E+00   -2.2099530770E+00   -2.1978103751E+00   -2.1858003817E+00
   -2.1739209329E+00   -2.1621699119E+00   -2.1505452473E+00   -2.1390449121E+00
   -2.1276669222E+00   -2.1164093357E+00   -2.1052702515E+00   -2.0942478083E+00
   -2.0833401838E+00   -2.0725455930E+00   -2.0618622881E+00   -2.0512885571E+00
   -2.0408227228E+00   -2.0304631421E+00   -2.0202082051E+00   -2.0100563343E+00
   -2.0000059838E+00   -1.9900556383E+00   -1.9802038125E+00   -1.9704490506E+00
   -1.9607899252E+00   -1.9512250367E+00   -1.9417530127E+00   -1.9323725073E+00
   -1.9230822007E+00   -1.9138807980E+00   -1.9047670292E+00   -1.8957396484E+00
   -1.8867974331E+00   -1.8779391836E+00   -1.8691637231E+00   -1.8604698962E+00
   -1.8518565692E+00   -1.8433226290E+00   -1.8348669834E+00   -1.8264885597E+00
   -1.8181863048E+00   -1.8099591849E+00   -1.8018061845E+00   -1.7937263065E+00
   -1.7857185716E+00   -1.7777820179E+00   -1.7699157004E+00   -1.7621186910E+00
   -1.7543900776E+00   -1.7467289642E+00   -1.7391344704E+00   -1.7316057310E+00
   -1.7241418956E+00   -1.7167421286E+00   -1.7094056086E+00   -1.7021315281E+00
   -1.6949190934E+00   -1.6877675241E+00   -1.6806760531E+00   -1.6736439259E+00
   -1.6666704006E+00   -1.6597547479E+00   -1.6528962502E+00   -1.6460942019E+00
   -1.6393479090E+00   -1.6326566886E+00   -1.6260198692E+00   -1.6194367899E+00
   -1.6129068008E+00   -1.6064292621E+00   -1.6000035443E+00   -1.5936290282E+00
   -1.5873051040E+00   -1.5810311720E+00   -1.5748066416E+00   -1.5686309316E+00
   -1.5625034699E+00   -1.5564236932E+00   -1.5503910471E+00   -1.5444049856E+00
   -1.5384649711E+00   -1.5325704744E+00   -1.5267209742E+00   -1.5209159574E+00
   -1.5151549183E+00   -1.5094373590E+00   -1.5037627893E+00   -1.4981307259E+00
   -1.4925406932E+00   -1.4869922223E+00   -1.4814848515E+00   -1.4760181256E+00
   -1.4705915965E+00   -1.4652048224E+00   -1.4598573679E+00   -1.4545488042E+00
   -1.4492787085E+00   -1.4440466641E+00   -1.4388522605E+00   -1.4336950928E+00
   -1.4285747621E+00   -1.4234908751E+00   -1.4184430441E+00   -1.4134308868E+00
   -1.4084540265E+00   -1.4035120915E+00   -1.3986047155E+00   -1.3937315373E+00
   -1.3888922005E+00   -1.3840863540E+00   -1.3793136512E+00   -1.3745737504E+00
   -1.3698663146E+00   -1.3651910114E+00   -1.3605475130E+00   -1.3559354958E+00
   -1.3513546408E+00   -1.3468046333E+00   -1.3422851626E+00   -1.3377959223E+00
   -1.3333366103E+00   -1.3289069280E+00   -1.3245065814E+00   -1.3201352797E+00
   -1.3157927365E+00   -1.3114786689E+00   -1.3071927976E+00   -1.3029348472E+00
   -1.2987045457E+00   -1.2945016246E+00   -1.2903258189E+00   -1.2861768672E+00
   -1.2820545111E+00   -1.2779584959E+00   -1.2738885697E+00   -1.2698444841E+00
   -1.2658259939E+00   -1.2618328567E+00   -1.2578648335E+00   -1.2539216879E+00
   -1.2500031869E+00   -1.2461091000E+00   -1.2422391998E+00   -1.2383932616E+00
   -1.2345710636E+00   -1.2307723867E+00   -1.2269970144E+00   -1.2232447328E+00
   -1.2195153308E+00   -1.2158085998E+00   -1.2121243337E+00   -1.2084623287E+00
   -1.2048223839E+00   -1.2012043005E+00   -1.1976078820E+00   -1.1940329345E+00
   -1.1904792663E+00   -1.1869466880E+00   -1.1834350123E+00   -1.1799440542E+00
   -1.1764736311E+00   -1.1730235622E+00   -1.1695936689E+00   -1.1661837749E+00
   -1.1627937057E+00   -1.1594232888E+00   -1.1560723540E+00   -1.1527407328E+00
   -1.1494282587E+00   -1.1461347671E+00   -1.1428600953E+00   -1.1396040824E+00
   -1.1363665694E+00   -1.1331473992E+00   -1.1299464162E+00   -1.1267634668E+00
   -1.1235983989E+00   -1.1204510624E+00   -1.1173213087E+00   -1.1142089908E+00
   -1.1111139633E+00   -1.1080360828E+00   -1.1049752069E+00   -1.1019311953E+00
   -1.0989039088E+00   -1.0958932101E+00   -1.0928989632E+00   -1.0899210336E+00
   -1.0869592883E+00   -1.0840135957E+00   -1.0810838256E+00   -1.0781698494E+00
   -1.0752715395E+00   -1.0723887701E+00   -1.0695214165E+00   -1.0666693553E+00
   -1.0638324645E+00   -1.0610106235E+00   -1.0582037127E+00   -1.0554116140E+00
   -1.0526342105E+00   -1.0498713865E+00   -1.0471230274E+00   -1.0443890199E+00
   -1.0416692520E+00   -1.0389636127E+00   -1.0362719922E+00   -1.0335942817E+00
   -1.0309303738E+00   -1.0282801620E+00   -1.0256435410E+00   -1.0230204064E+00
   -1.0204106551E+00   -1.0178141849E+00   -1.0152308947E+00   -1.0126606844E+00
   -1.0101034549E+00   -1.0075591080E+00   -1.0050275468E+00   -1.0025086750E+00
   -1.0000023976E+00   -9.9750862019E-01   -9.9502724960E-01   -9.9255819345E-01
   -9.9010136029E-01   -9.8765665959E-01   -9.8522400170E-01   -9.8280329786E-01
   -9.8039446016E-01   -9.7799740156E-01   -9.7561203590E-01   -9.7323827780E-01
   -9.7087604276E-01   -9.6852524708E-01   -9.6618580785E-01   -9.6385764299E-01
   -9.6154067119E-01   -9.5923481193E-01   -9.5693998545E-01   -9.5465611276E-01
   -9.5238311562E-01   -9.5012091654E-01   -9.4786943875E-01   -9.4562860621E-01
   -9.4339834361E-01   -9.4117857633E-01   -9.3896923047E-01   -9.3677023280E-01
   -9.3458151080E-01   -9.3240299261E-01   -9.3023460703E-01   -9.2807628355E-01
   -9.2592795228E-01   -9.2378954401E-01   -9.2166099012E-01   -9.1954222268E-01
   -9.1743317433E-01   -9.1533377836E-01   -9.1324396865E-01   -9.1116367970E-01
   -9.0909284660E-01   -9.0703140502E-01   -9.0497929121E-01   -9.0293644201E-01
   -9.0090279482E-01   -8.9887828761E-01   -8.9686285890E-01   -8.9485644775E-01
   -8.9285899379E-01   -8.9087043716E-01   -8.8889071855E-01   -8.8691977918E-01
   -8.8495756077E-01   -8.8300400557E-01   -8.8105905634E-01   -8.7912265632E-01
   -8.7719474929E-01   -8.7527527948E-01   -8.7336419163E-01   -8.7146143096E-01
   -8.6956694316E-01   -8.6768067439E-01   -8.6580257129E-01   -8.6393258094E-01
   -8.6207065090E-01   -8.6021672915E-01   -8.5837076415E-01   -8.5653270479E-01
   -8.5470250038E-01   -8.5288010068E-01   -8.5106545588E-01   -8.4925851658E-01
   -8.4745923380E-01   -8.4566755898E-01   -8.4388344398E-01   -8.4210684105E-01
   -8.4033770284E-01   -8.3857598240E-01   -8.3682163319E-01   -8.3507460903E-01
   -8.3333486414E-01   -8.3160235312E-01   -8.2987703095E-01   -8.2815885298E-01
   -8.2644777493E-01   -8.2474375287E-01   -8.2304674326E-01   -8.2135670290E-01
   -8.1967358893E-01   -8.1799735888E-01   -8.1632797059E-01   -8.1466538227E-01
   -8.1300955244E-01   -8.1136043998E-01   -8.0971800410E-01   -8.0808220433E-01
   -8.0645300054E-01   -8.0483035291E-01   -8.0321422195E-01   -8.0160456848E-01
   -8.0000135363E-01   -7.9840453886E-01   -7.9681408590E-01   -7.9522995683E-01
   -7.9365211399E-01   -7.9208052004E-01   -7.9051513795E-01   -7.8895593094E-01
   -7.8740286255E-01   -7.8585589660E-01   -7.8431499720E-01   -7.8278012873E-01
   -7.8125125585E-01   -7.7972834350E-01   -7.7821135690E-01   -7.7670026151E-01
   -7.7519502310E-01   -7.7369560767E-01   -7.7220198151E-01   -7.7071411114E-01
   -7.6923196336E-01   -7.6775550523E-01   -7.6628470403E-01   -7.6481952733E-01
   -7.6335994292E-01   -7.6190591884E-01   -7.6045742339E-01   -7.5901442508E-01
   -7.5757689270E-01   -7.5614479523E-01   -7.5471810191E-01   -7.5329678222E-01
   -7.5188080585E-01   -7.5047014273E-01   -7.4906476301E-01   -7.4766463705E-01
   -7.4626973546E-01   -7.4488002905E-01   -7.4349548884E-01   -7.4211608609E-01
   -7.4074179226E-01   -7.3937257900E-01   -7.3800841821E-01   -7.3664928197E-01
   -7.3529514257E-01   -7.3394597250E-01   -7.3260174446E-01   -7.3126243134E-01
   -7.2992800624E-01   -7.2859844246E-01   -7.2727371346E-01   -7.2595379293E-01
   -7.2463865474E-01   -7.2332827294E-01   -7.2202262177E-01   -7.2072167567E-01
   -7.1942540924E-01   -7.1813379729E-01   -7.1684681478E-01   -7.1556443688E-01
   -7.1428663891E-01   -7.1301339639E-01   -7.1174468499E-01   -7.1048048058E-01
   -7.0922075918E-01   -7.0796549698E-01   -7.0671467035E-01   -7.0546825582E-01
   -7.0422623009E-01   -7.0298857002E-01   -7.0175525263E-01   -7.0052625511E-01
   -6.9930155479E-01   -6.9808112919E-01   -6.9686495595E-01   -6.9565301290E-01
   -6.9444527800E-01   -6.9324172936E-01   -6.9204234527E-01   -6.9084710415E-01
   -6.8965598456E-01   -6.8846896522E-01   -6.8728602500E-01   -6.8610714291E-01
   -6.8493229810E-01   -6.8376146987E-01   -6.8259463766E-01   -6.8143178103E-01
   -6.8027287972E-01   -6.7911791357E-01   -6.7796686257E-01   -6.7681970685E-01
   -6.7567642667E-01   -6.7453700243E-01   -6.7340141465E-01   -6.7226964398E-01
   -6.7114167121E-01   -6.7001747726E-01   -6.6889704317E-01   -6.6778035011E-01
   -6.6666737937E-01   -6.6555811238E-01   -6.6445253067E-01   -6.6335061591E-01
   -6.6225234989E-01   -6.6115771452E-01   -6.6006669182E-01   -6.5897926393E-01
   -6.5789541312E-01   -6.5681512177E-01   -6.5573837238E-01   -6.5466514754E-01
   -6.5359542999E-01   -6.5252920256E-01   -6.5146644819E-01   -6.5040714995E-01
   -6.4935129100E-01   -6.4829885462E-01   -6.4724982420E-01   -6.4620418323E-01
   -6.4516191530E-01   -6.4412300413E-01   -6.4308743352E-01   -6.4205518739E-01
   -6.4102624976E-01   -6.4000060473E-01   -6.3897823654E-01   -6.3795912951E-01
   -6.3694326805E-01   -6.3593063669E-01   -6.3492122004E-01   -6.3391500282E-01
   -6.3291196985E-01   -6.3191210603E-01   -6.3091539637E-01   -6.2992182596E-01