<UPF version="2.0.1">
  <PP_INFO>

 This pseudopotential file has been produced using the code
 ONCVPSP  (Optimized Norm-Conservinng Vanderbilt PSeudopotential)
 scalar-relativistic version 4.0.1 06/04/2019 by D. R. Hamann
 The code is available through a link at URL www.mat-simresearch.com.
 Documentation with the package provides a full discription of the
 input data below.


 While it is not required under the terms of the GNU GPL, it is
 suggested that you cite D. R. Hamann, Phys. Rev. B 88, 085117 (2013)
 in any publication using these pseudopotentials.

    <PP_INPUTFILE>
# ATOM AND REFERENCE CONFIGURATION
# atsym  z   nc   nv     iexc    psfile
  Ne 10.00    1    2       4      upf
#
#   n    l    f        energy (Ha)
    1    0    2.00
    2    0    2.00
    2    1    6.00
#
# PSEUDOPOTENTIAL AND OPTIMIZATION
# lmax
    1
#
#   l,   rc,      ep,       ncon, nbas, qcut
    0   1.30000  -1.34000    4    7   8.00000
    1   1.70000  -0.49000    4    7   8.00000
#
# LOCAL POTENTIAL
# lloc, lpopt,  rc(5),   dvloc0
    4    5   1.30000      0.00000
#
# VANDERBILT-KLEINMAN-BYLANDER PROJECTORs
# l, nproj, debl
    0    2   1.50000
    1    2   1.50000
#
# MODEL CORE CHARGE
# icmod, fcfact, rcfact
    0   0.00000   0.00000
#
# LOG DERIVATIVE ANALYSIS
# epsh1, epsh2, depsh
  -12.00   12.00    0.02
#
# OUTPUT GRID
# rlmax, drl
    4.00    0.01
#
# TEST CONFIGURATIONS
# ncnf
    0
# nvcnf
#   n    l    f
    </PP_INPUTFILE>
  </PP_INFO>
  <!--                               -->
  <!-- END OF HUMAN READABLE SECTION -->
  <!--                               -->
    <PP_HEADER
       generated="Generated using ONCVPSP code by D. R. Hamann"
       author="anonymous"
       date="220414"
       comment=""
       element="Ne"
       pseudo_type="NC"
       relativistic="scalar"
       is_ultrasoft="F"
       is_paw="F"
       is_coulomb="F"
       has_so="F"
       has_wfc="F"
       has_gipaw="F"
       core_correction="F"
       functional="PBE"
       z_valence="    8.00"
       total_psenergy="  -6.66993264344E+01"
       rho_cutoff="   7.53000000000E+00"
       l_max="1"
       l_local="-1"
       mesh_size="   754"
       number_of_wfc="2"
       number_of_proj="4"/>
 <PP_MESH>
   <PP_R type="real"  size=" 754" columns="8">
    0.0000    0.0100    0.0200    0.0300    0.0400    0.0500    0.0600    0.0700
    0.0800    0.0900    0.1000    0.1100    0.1200    0.1300    0.1400    0.1500
    0.1600    0.1700    0.1800    0.1900    0.2000    0.2100    0.2200    0.2300
    0.2400    0.2500    0.2600    0.2700    0.2800    0.2900    0.3000    0.3100
    0.3200    0.3300    0.3400    0.3500    0.3600    0.3700    0.3800    0.3900
    0.4000    0.4100    0.4200    0.4300    0.4400    0.4500    0.4600    0.4700
    0.4800    0.4900    0.5000    0.5100    0.5200    0.5300    0.5400    0.5500
    0.5600    0.5700    0.5800    0.5900    0.6000    0.6100    0.6200    0.6300
    0.6400    0.6500    0.6600    0.6700    0.6800    0.6900    0.7000    0.7100
    0.7200    0.7300    0.7400    0.7500    0.7600    0.7700    0.7800    0.7900
    0.8000    0.8100    0.8200    0.8300    0.8400    0.8500    0.8600    0.8700
    0.8800    0.8900    0.9000    0.9100    0.9200    0.9300    0.9400    0.9500
    0.9600    0.9700    0.9800    0.9900    1.0000    1.0100    1.0200    1.0300
    1.0400    1.0500    1.0600    1.0700    1.0800    1.0900    1.1000    1.1100
    1.1200    1.1300    1.1400    1.1500    1.1600    1.1700    1.1800    1.1900
    1.2000    1.2100    1.2200    1.2300    1.2400    1.2500    1.2600    1.2700
    1.2800    1.2900    1.3000    1.3100    1.3200    1.3300    1.3400    1.3500
    1.3600    1.3700    1.3800    1.3900    1.4000    1.4100    1.4200    1.4300
    1.4400    1.4500    1.4600    1.4700    1.4800    1.4900    1.5000    1.5100
    1.5200    1.5300    1.5400    1.5500    1.5600    1.5700    1.5800    1.5900
    1.6000    1.6100    1.6200    1.6300    1.6400    1.6500    1.6600    1.6700
    1.6800    1.6900    1.7000    1.7100    1.7200    1.7300    1.7400    1.7500
    1.7600    1.7700    1.7800    1.7900    1.8000    1.8100    1.8200    1.8300
    1.8400    1.8500    1.8600    1.8700    1.8800    1.8900    1.9000    1.9100
    1.9200    1.9300    1.9400    1.9500    1.9600    1.9700    1.9800    1.9900
    2.0000    2.0100    2.0200    2.0300    2.0400    2.0500    2.0600    2.0700
    2.0800    2.0900    2.1000    2.1100    2.1200    2.1300    2.1400    2.1500
    2.1600    2.1700    2.1800    2.1900    2.2000    2.2100    2.2200    2.2300
    2.2400    2.2500    2.2600    2.2700    2.2800    2.2900    2.3000    2.3100
    2.3200    2.3300    2.3400    2.3500    2.3600    2.3700    2.3800    2.3900
    2.4000    2.4100    2.4200    2.4300    2.4400    2.4500    2.4600    2.4700
    2.4800    2.4900    2.5000    2.5100    2.5200    2.5300    2.5400    2.5500
    2.5600    2.5700    2.5800    2.5900    2.6000    2.6100    2.6200    2.6300
    2.6400    2.6500    2.6600    2.6700    2.6800    2.6900    2.7000    2.7100
    2.7200    2.7300    2.7400    2.7500    2.7600    2.7700    2.7800    2.7900
    2.8000    2.8100    2.8200    2.8300    2.8400    2.8500    2.8600    2.8700
    2.8800    2.8900    2.9000    2.9100    2.9200    2.9300    2.9400    2.9500
    2.9600    2.9700    2.9800    2.9900    3.0000    3.0100    3.0200    3.0300
    3.0400    3.0500    3.0600    3.0700    3.0800    3.0900    3.1000    3.1100
    3.1200    3.1300    3.1400    3.1500    3.1600    3.1700    3.1800    3.1900
    3.2000    3.2100    3.2200    3.2300    3.2400    3.2500    3.2600    3.2700
    3.2800    3.2900    3.3000    3.3100    3.3200    3.3300    3.3400    3.3500
    3.3600    3.3700    3.3800    3.3900    3.4000    3.4100    3.4200    3.4300
    3.4400    3.4500    3.4600    3.4700    3.4800    3.4900    3.5000    3.5100
    3.5200    3.5300    3.5400    3.5500    3.5600    3.5700    3.5800    3.5900
    3.6000    3.6100    3.6200    3.6300    3.6400    3.6500    3.6600    3.6700
    3.6800    3.6900    3.7000    3.7100    3.7200    3.7300    3.7400    3.7500
    3.7600    3.7700    3.7800    3.7900    3.8000    3.8100    3.8200    3.8300
    3.8400    3.8500    3.8600    3.8700    3.8800    3.8900    3.9000    3.9100
    3.9200    3.9300    3.9400    3.9500    3.9600    3.9700    3.9800    3.9900
    4.0000    4.0100    4.0200    4.0300    4.0400    4.0500    4.0600    4.0700
    4.0800    4.0900    4.1000    4.1100    4.1200    4.1300    4.1400    4.1500
    4.1600    4.1700    4.1800    4.1900    4.2000    4.2100    4.2200    4.2300
    4.2400    4.2500    4.2600    4.2700    4.2800    4.2900    4.3000    4.3100
    4.3200    4.3300    4.3400    4.3500    4.3600    4.3700    4.3800    4.3900
    4.4000    4.4100    4.4200    4.4300    4.4400    4.4500    4.4600    4.4700
    4.4800    4.4900    4.5000    4.5100    4.5200    4.5300    4.5400    4.5500
    4.5600    4.5700    4.5800    4.5900    4.6000    4.6100    4.6200    4.6300
    4.6400    4.6500    4.6600    4.6700    4.6800    4.6900    4.7000    4.7100
    4.7200    4.7300    4.7400    4.7500    4.7600    4.7700    4.7800    4.7900
    4.8000    4.8100    4.8200    4.8300    4.8400    4.8500    4.8600    4.8700
    4.8800    4.8900    4.9000    4.9100    4.9200    4.9300    4.9400    4.9500
    4.9600    4.9700    4.9800    4.9900    5.0000    5.0100    5.0200    5.0300
    5.0400    5.0500    5.0600    5.0700    5.0800    5.0900    5.1000    5.1100
    5.1200    5.1300    5.1400    5.1500    5.1600    5.1700    5.1800    5.1900
    5.2000    5.2100    5.2200    5.2300    5.2400    5.2500    5.2600    5.2700
    5.2800    5.2900    5.3000    5.3100    5.3200    5.3300    5.3400    5.3500
    5.3600    5.3700    5.3800    5.3900    5.4000    5.4100    5.4200    5.4300
    5.4400    5.4500    5.4600    5.4700    5.4800    5.4900    5.5000    5.5100
    5.5200    5.5300    5.5400    5.5500    5.5600    5.5700    5.5800    5.5900
    5.6000    5.6100    5.6200    5.6300    5.6400    5.6500    5.6600    5.6700
    5.6800    5.6900    5.7000    5.7100    5.7200    5.7300    5.7400    5.7500
    5.7600    5.7700    5.7800    5.7900    5.8000    5.8100    5.8200    5.8300
    5.8400    5.8500    5.8600    5.8700    5.8800    5.8900    5.9000    5.9100
    5.9200    5.9300    5.9400    5.9500    5.9600    5.9700    5.9800    5.9900
    6.0000    6.0100    6.0200    6.0300    6.0400    6.0500    6.0600    6.0700
    6.0800    6.0900    6.1000    6.1100    6.1200    6.1300    6.1400    6.1500
    6.1600    6.1700    6.1800    6.1900    6.2000    6.2100    6.2200    6.2300
    6.2400    6.2500    6.2600    6.2700    6.2800    6.2900    6.3000    6.3100
    6.3200    6.3300    6.3400    6.3500    6.3600    6.3700    6.3800    6.3900
    6.4000    6.4100    6.4200    6.4300    6.4400    6.4500    6.4600    6.4700
    6.4800    6.4900    6.5000    6.5100    6.5200    6.5300    6.5400    6.5500
    6.5600    6.5700    6.5800    6.5900    6.6000    6.6100    6.6200    6.6300
    6.6400    6.6500    6.6600    6.6700    6.6800    6.6900    6.7000    6.7100
    6.7200    6.7300    6.7400    6.7500    6.7600    6.7700    6.7800    6.7900
    6.8000    6.8100    6.8200    6.8300    6.8400    6.8500    6.8600    6.8700
    6.8800    6.8900    6.9000    6.9100    6.9200    6.9300    6.9400    6.9500
    6.9600    6.9700    6.9800    6.9900    7.0000    7.0100    7.0200    7.0300
    7.0400    7.0500    7.0600    7.0700    7.0800    7.0900    7.1000    7.1100
    7.1200    7.1300    7.1400    7.1500    7.1600    7.1700    7.1800    7.1900
    7.2000    7.2100    7.2200    7.2300    7.2400    7.2500    7.2600    7.2700
    7.2800    7.2900    7.3000    7.3100    7.3200    7.3300    7.3400    7.3500
    7.3600    7.3700    7.3800    7.3900    7.4000    7.4100    7.4200    7.4300
    7.4400    7.4500    7.4600    7.4700    7.4800    7.4900    7.5000    7.5100
    7.5200    7.5300
   </PP_R>
   <PP_RAB type="real"  size=" 754" columns="8">
    0.0100    0.0100    0.0100    0.0100    0.0100    0.0100    0.0100    0.0100
    0.0100    0.0100    0.0100    0.0100    0.0100    0.0100    0.0100    0.0100
    0.0100    0.0100    0.0100    0.0100    0.0100    0.0100    0.0100    0.0100
    0.0100    0.0100    0.0100    0.0100    0.0100    0.0100    0.0100    0.0100
    0.0100    0.0100    0.0100    0.0100    0.0100    0.0100    0.0100    0.0100
    0.0100    0.0100    0.0100    0.0100    0.0100    0.0100    0.0100    0.0100
    0.0100    0.0100    0.0100    0.0100    0.0100    0.0100    0.0100    0.0100
    0.0100    0.0100    0.0100    0.0100    0.0100    0.0100    0.0100    0.0100
    0.0100    0.0100    0.0100    0.0100    0.0100    0.0100    0.0100    0.0100
    0.0100    0.0100    0.0100    0.0100    0.0100    0.0100    0.0100    0.0100
    0.0100    0.0100    0.0100    0.0100    0.0100    0.0100    0.0100    0.0100
    0.0100    0.0100    0.0100    0.0100    0.0100    0.0100    0.0100    0.0100
    0.0100    0.0100    0.0100    0.0100    0.0100    0.0100    0.0100    0.0100
    0.0100    0.0100    0.0100    0.0100    0.0100    0.0100    0.0100    0.0100
    0.0100    0.0100    0.0100    0.0100    0.0100    0.0100    0.0100    0.0100
    0.0100    0.0100    0.0100    0.0100    0.0100    0.0100    0.0100    0.0100
    0.0100    0.0100    0.0100    0.0100    0.0100    0.0100    0.0100    0.0100
    0.0100    0.0100    0.0100    0.0100    0.0100    0.0100    0.0100    0.0100
    0.0100    0.0100    0.0100    0.0100    0.0100    0.0100    0.0100    0.0100
    0.0100    0.0100    0.0100    0.0100    0.0100    0.0100    0.0100    0.0100
    0.0100    0.0100    0.0100    0.0100    0.0100    0.0100    0.0100    0.0100
    0.0100    0.0100    0.0100    0.0100    0.0100    0.0100    0.0100    0.0100
    0.0100    0.0100    0.0100    0.0100    0.0100    0.0100    0.0100    0.0100
    0.0100    0.0100    0.0100    0.0100    0.0100    0.0100    0.0100    0.0100
    0.0100    0.0100    0.0100    0.0100    0.0100    0.0100    0.0100    0.0100
    0.0100    0.0100    0.0100    0.0100    0.0100    0.0100    0.0100    0.0100
    0.0100    0.0100    0.0100    0.0100    0.0100    0.0100    0.0100    0.0100
    0.0100    0.0100    0.0100    0.0100    0.0100    0.0100    0.0100    0.0100
    0.0100    0.0100    0.0100    0.0100    0.0100    0.0100    0.0100    0.0100
    0.0100    0.0100    0.0100    0.0100    0.0100    0.0100    0.0100    0.0100
    0.0100    0.0100    0.0100    0.0100    0.0100    0.0100    0.0100    0.0100
    0.0100    0.0100    0.0100    0.0100    0.0100    0.0100    0.0100    0.0100
    0.0100    0.0100    0.0100    0.0100    0.0100    0.0100    0.0100    0.0100
    0.0100    0.0100    0.0100    0.0100    0.0100    0.0100    0.0100    0.0100
    0.0100    0.0100    0.0100    0.0100    0.0100    0.0100    0.0100    0.0100
    0.0100    0.0100    0.0100    0.0100    0.0100    0.0100    0.0100    0.0100
    0.0100    0.0100    0.0100    0.0100    0.0100    0.0100    0.0100    0.0100
    0.0100    0.0100    0.0100    0.0100    0.0100    0.0100    0.0100    0.0100
    0.0100    0.0100    0.0100    0.0100    0.0100    0.0100    0.0100    0.0100
    0.0100    0.0100    0.0100    0.0100    0.0100    0.0100    0.0100    0.0100
    0.0100    0.0100    0.0100    0.0100    0.0100    0.0100    0.0100    0.0100
    0.0100    0.0100    0.0100    0.0100    0.0100    0.0100    0.0100    0.0100
    0.0100    0.0100    0.0100    0.0100    0.0100    0.0100    0.0100    0.0100
    0.0100    0.0100    0.0100    0.0100    0.0100    0.0100    0.0100    0.0100
    0.0100    0.0100    0.0100    0.0100    0.0100    0.0100    0.0100    0.0100
    0.0100    0.0100    0.0100    0.0100    0.0100    0.0100    0.0100    0.0100
    0.0100    0.0100    0.0100    0.0100    0.0100    0.0100    0.0100    0.0100
    0.0100    0.0100    0.0100    0.0100    0.0100    0.0100    0.0100    0.0100
    0.0100    0.0100    0.0100    0.0100    0.0100    0.0100    0.0100    0.0100
    0.0100    0.0100    0.0100    0.0100    0.0100    0.0100    0.0100    0.0100
    0.0100    0.0100    0.0100    0.0100    0.0100    0.0100    0.0100    0.0100
    0.0100    0.0100    0.0100    0.0100    0.0100    0.0100    0.0100    0.0100
    0.0100    0.0100    0.0100    0.0100    0.0100    0.0100    0.0100    0.0100
    0.0100    0.0100    0.0100    0.0100    0.0100    0.0100    0.0100    0.0100
    0.0100    0.0100    0.0100    0.0100    0.0100    0.0100    0.0100    0.0100
    0.0100    0.0100    0.0100    0.0100    0.0100    0.0100    0.0100    0.0100
    0.0100    0.0100    0.0100    0.0100    0.0100    0.0100    0.0100    0.0100
    0.0100    0.0100    0.0100    0.0100    0.0100    0.0100    0.0100    0.0100
    0.0100    0.0100    0.0100    0.0100    0.0100    0.0100    0.0100    0.0100
    0.0100    0.0100    0.0100    0.0100    0.0100    0.0100    0.0100    0.0100
    0.0100    0.0100    0.0100    0.0100    0.0100    0.0100    0.0100    0.0100
    0.0100    0.0100    0.0100    0.0100    0.0100    0.0100    0.0100    0.0100
    0.0100    0.0100    0.0100    0.0100    0.0100    0.0100    0.0100    0.0100
    0.0100    0.0100    0.0100    0.0100    0.0100    0.0100    0.0100    0.0100
    0.0100    0.0100    0.0100    0.0100    0.0100    0.0100    0.0100    0.0100
    0.0100    0.0100    0.0100    0.0100    0.0100    0.0100    0.0100    0.0100
    0.0100    0.0100    0.0100    0.0100    0.0100    0.0100    0.0100    0.0100
    0.0100    0.0100    0.0100    0.0100    0.0100    0.0100    0.0100    0.0100
    0.0100    0.0100    0.0100    0.0100    0.0100    0.0100    0.0100    0.0100
    0.0100    0.0100    0.0100    0.0100    0.0100    0.0100    0.0100    0.0100
    0.0100    0.0100    0.0100    0.0100    0.0100    0.0100    0.0100    0.0100
    0.0100    0.0100    0.0100    0.0100    0.0100    0.0100    0.0100    0.0100
    0.0100    0.0100    0.0100    0.0100    0.0100    0.0100    0.0100    0.0100
    0.0100    0.0100    0.0100    0.0100    0.0100    0.0100    0.0100    0.0100
    0.0100    0.0100    0.0100    0.0100    0.0100    0.0100    0.0100    0.0100
    0.0100    0.0100    0.0100    0.0100    0.0100    0.0100    0.0100    0.0100
    0.0100    0.0100    0.0100    0.0100    0.0100    0.0100    0.0100    0.0100
    0.0100    0.0100    0.0100    0.0100    0.0100    0.0100    0.0100    0.0100
    0.0100    0.0100    0.0100    0.0100    0.0100    0.0100    0.0100    0.0100
    0.0100    0.0100    0.0100    0.0100    0.0100    0.0100    0.0100    0.0100
    0.0100    0.0100    0.0100    0.0100    0.0100    0.0100    0.0100    0.0100
    0.0100    0.0100    0.0100    0.0100    0.0100    0.0100    0.0100    0.0100
    0.0100    0.0100    0.0100    0.0100    0.0100    0.0100    0.0100    0.0100
    0.0100    0.0100    0.0100    0.0100    0.0100    0.0100    0.0100    0.0100
    0.0100    0.0100    0.0100    0.0100    0.0100    0.0100    0.0100    0.0100
    0.0100    0.0100    0.0100    0.0100    0.0100    0.0100    0.0100    0.0100
    0.0100    0.0100    0.0100    0.0100    0.0100    0.0100    0.0100    0.0100
    0.0100    0.0100    0.0100    0.0100    0.0100    0.0100    0.0100    0.0100
    0.0100    0.0100    0.0100    0.0100    0.0100    0.0100    0.0100    0.0100
    0.0100    0.0100    0.0100    0.0100    0.0100    0.0100    0.0100    0.0100
    0.0100    0.0100    0.0100    0.0100    0.0100    0.0100    0.0100    0.0100
    0.0100    0.0100    0.0100    0.0100    0.0100    0.0100    0.0100    0.0100
    0.0100    0.0100    0.0100    0.0100    0.0100    0.0100    0.0100    0.0100
    0.0100    0.0100    0.0100    0.0100    0.0100    0.0100    0.0100    0.0100
    0.0100    0.0100
   </PP_RAB>
 </PP_MESH>
  <PP_LOCAL type="real"  size=" 754" columns="4">
   -2.7071144720E+01   -2.7081692205E+01   -2.7110555873E+01   -2.7150499611E+01
   -2.7192446039E+01   -2.7228140659E+01   -2.7251766422E+01   -2.7260303133E+01
   -2.7253049675E+01   -2.7230843232E+01   -2.7195333220E+01   -2.7148454207E+01
   -2.7092105757E+01   -2.7027991223E+01   -2.6957559418E+01   -2.6882004151E+01
   -2.6802291329E+01   -2.6719195539E+01   -2.6633336475E+01   -2.6545210827E+01
   -2.6455218256E+01   -2.6363681534E+01   -2.6270861651E+01   -2.6176968843E+01
   -2.6082170470E+01   -2.5986596513E+01   -2.5890343345E+01   -2.5793476242E+01
   -2.5696031031E+01   -2.5598015159E+01   -2.5499408451E+01   -2.5400163766E+01
   -2.5300207768E+01   -2.5199442008E+01   -2.5097744501E+01   -2.4994971960E+01
   -2.4890962813E+01   -2.4785541074E+01   -2.4678521068E+01   -2.4569712919E+01
   -2.4458928638E+01   -2.4345988549E+01   -2.4230727715E+01   -2.4113002019E+01
   -2.3992693513E+01   -2.3869714700E+01   -2.3744011499E+01   -2.3615564710E+01
   -2.3484389952E+01   -2.3350536150E+01   -2.3214082747E+01   -2.3075135914E+01
   -2.2933824070E+01   -2.2790293050E+01   -2.2644701212E+01   -2.2497214788E+01
   -2.2348003641E+01   -2.2197237624E+01   -2.2045083568E+01   -2.1891702964E+01
   -2.1737250281E+01   -2.1581871877E+01   -2.1425705414E+01   -2.1268879691E+01
   -2.1111514798E+01   -2.0953722510E+01   -2.0795606835E+01   -2.0637264660E+01
   -2.0478786437E+01   -2.0320256866E+01   -2.0161755557E+01   -2.0003357630E+01
   -1.9845134267E+01   -1.9687153184E+01   -1.9529479040E+01   -1.9372173774E+01
   -1.9215296883E+01   -1.9058905636E+01   -1.8903055238E+01   -1.8747798954E+01
   -1.8593188186E+01   -1.8439272527E+01   -1.8286099782E+01   -1.8133715976E+01
   -1.7982165339E+01   -1.7831490292E+01   -1.7681731416E+01   -1.7532927422E+01
   -1.7385115128E+01   -1.7238329427E+01   -1.7092603270E+01   -1.6947967655E+01
   -1.6804451618E+01   -1.6662082241E+01   -1.6520884669E+01   -1.6380882138E+01
   -1.6242096010E+01   -1.6104545827E+01   -1.5968249368E+01   -1.5833222725E+01
   -1.5699480376E+01   -1.5567035275E+01   -1.5435898946E+01   -1.5306081578E+01
   -1.5177592122E+01   -1.5050438394E+01   -1.4924627166E+01   -1.4800164262E+01
   -1.4677054638E+01   -1.4555302459E+01   -1.4434911163E+01   -1.4315883510E+01
   -1.4198221622E+01   -1.4081927003E+01   -1.3967000541E+01   -1.3853442502E+01
   -1.3741252499E+01   -1.3630429449E+01   -1.3520971512E+01   -1.3412876024E+01
   -1.3306139405E+01   -1.3200757067E+01   -1.3096723305E+01   -1.2994031193E+01
   -1.2892672456E+01   -1.2792637343E+01   -1.2693914535E+01   -1.2596491066E+01
   -1.2500352143E+01   -1.2405481071E+01   -1.2311859079E+01   -1.2219467376E+01
   -1.2128291920E+01   -1.2038312622E+01   -1.1949508048E+01   -1.1861857928E+01
   -1.1775342867E+01   -1.1689944308E+01   -1.1605644509E+01   -1.1522426516E+01
   -1.1440274144E+01   -1.1359171959E+01   -1.1279105265E+01   -1.1200060083E+01
   -1.1122023136E+01   -1.1044981820E+01   -1.0968924182E+01   -1.0893838873E+01
   -1.0819715110E+01   -1.0746542619E+01   -1.0674311562E+01   -1.0603012467E+01
   -1.0532636134E+01   -1.0463173536E+01   -1.0394615711E+01   -1.0326953640E+01
   -1.0260178127E+01   -1.0194279665E+01   -1.0129248310E+01   -1.0065073552E+01
   -1.0001744193E+01   -9.9392482309E+00   -9.8775727650E+00   -9.8167039086E+00
   -9.7566267317E+00   -9.6973252319E+00   -9.6387823208E+00   -9.5809798368E+00
   -9.5238986014E+00   -9.4675185271E+00   -9.4118186540E+00   -9.3567775210E+00
   -9.3023769644E+00   -9.2486053021E+00   -9.1954517042E+00   -9.1429055875E+00
   -9.0909565954E+00   -9.0395946072E+00   -8.9888097295E+00   -8.9385922897E+00
   -8.8889328303E+00   -8.8398221028E+00   -8.7912510620E+00   -8.7432108604E+00
   -8.6956928428E+00   -8.6486885413E+00   -8.6021896699E+00   -8.5561881200E+00
   -8.5106759555E+00   -8.4656454082E+00   -8.4210888736E+00   -8.3769989064E+00
   -8.3333682162E+00   -8.2901896641E+00   -8.2474562581E+00   -8.2051611497E+00
   -8.1632976302E+00   -8.1218591272E+00   -8.0808392009E+00   -8.0402315412E+00
   -8.0000299638E+00   -7.9602284080E+00   -7.9208209327E+00   -7.8818017139E+00
   -7.8431650423E+00   -7.8049053186E+00   -7.7670170549E+00   -7.7294948675E+00
   -7.6923334740E+00   -7.6555276979E+00   -7.6190724585E+00   -7.5829627715E+00
   -7.5471937472E+00   -7.5117605874E+00   -7.4766585838E+00   -7.4418831155E+00
   -7.4074296473E+00   -7.3732937276E+00   -7.3394709865E+00   -7.3059571338E+00
   -7.2727479574E+00   -7.2398393214E+00   -7.2072271644E+00   -7.1749074979E+00
   -7.1428764047E+00   -7.1111300370E+00   -7.0796646153E+00   -7.0484764266E+00
   -7.0175618232E+00   -6.9869172208E+00   -6.9565390978E+00   -6.9264239933E+00
   -6.8965685063E+00   -6.8669692939E+00   -6.8376230706E+00   -6.8085266067E+00
   -6.7796767273E+00   -6.7510703111E+00   -6.7227042890E+00   -6.6945756437E+00
   -6.6666814078E+00   -6.6390186634E+00   -6.6115845407E+00   -6.5843762172E+00
   -6.5573909166E+00   -6.5306259080E+00   -6.5040785049E+00   -6.4777460643E+00
   -6.4516259857E+00   -6.4257157105E+00   -6.4000127211E+00   -6.3745145399E+00
   -6.3492187286E+00   -6.3241228877E+00   -6.2992246550E+00   -6.2745217059E+00
   -6.2500117519E+00   -6.2256925398E+00   -6.2015618520E+00   -6.1776175044E+00
   -6.1538573472E+00   -6.1302792630E+00   -6.1068811670E+00   -6.0836610062E+00
   -6.0606167583E+00   -6.0377464320E+00   -6.0150480656E+00   -5.9925197269E+00
   -5.9701595127E+00   -5.9479655478E+00   -5.9259359850E+00   -5.9040690044E+00
   -5.8823628126E+00   -5.8608156427E+00   -5.8394257535E+00   -5.8181914292E+00
   -5.7971109789E+00   -5.7761827359E+00   -5.7554050577E+00   -5.7347763253E+00
   -5.7142949427E+00   -5.6939593368E+00   -5.6737679568E+00   -5.6537192736E+00
   -5.6338117799E+00   -5.6140439894E+00   -5.5944144367E+00   -5.5749216767E+00
   -5.5555642844E+00   -5.5363408546E+00   -5.5172500015E+00   -5.4982903582E+00
   -5.4794605766E+00   -5.4607593271E+00   -5.4421852980E+00   -5.4237371955E+00
   -5.4054137434E+00   -5.3872136825E+00   -5.3691357705E+00   -5.3511787818E+00
   -5.3333415073E+00   -5.3156227536E+00   -5.2980213434E+00   -5.2805361147E+00
   -5.2631659212E+00   -5.2459096312E+00   -5.2287661280E+00   -5.2117343094E+00
   -5.1948130875E+00   -5.1780013886E+00   -5.1612981528E+00   -5.1447023336E+00
   -5.1282128984E+00   -5.1118288273E+00   -5.0955491136E+00   -5.0793727636E+00
   -5.0632987958E+00   -5.0473262413E+00   -5.0314541433E+00   -5.0156815572E+00
   -5.0000075499E+00   -4.9844312001E+00   -4.9689515980E+00   -4.9535678450E+00
   -4.9382790535E+00   -4.9230843469E+00   -4.9079828595E+00   -4.8929737360E+00
   -4.8780561315E+00   -4.8632292116E+00   -4.8484921518E+00   -4.8338441376E+00
   -4.8192843645E+00   -4.8048120374E+00   -4.7904263710E+00   -4.7761265890E+00
   -4.7619119246E+00   -4.7477816202E+00   -4.7337349270E+00   -4.7197711050E+00
   -4.7058894230E+00   -4.6920891584E+00   -4.6783695969E+00   -4.6647300327E+00
   -4.6511697682E+00   -4.6376881137E+00   -4.6242843877E+00   -4.6109579164E+00
   -4.5977080338E+00   -4.5845340816E+00   -4.5714354090E+00   -4.5584113724E+00
   -4.5454613359E+00   -4.5325846704E+00   -4.5197807543E+00   -4.5070489727E+00
   -4.4943887177E+00   -4.4817993883E+00   -4.4692803902E+00   -4.4568311355E+00
   -4.4444510432E+00   -4.4321395383E+00   -4.4198960527E+00   -4.4077200240E+00
   -4.3956108963E+00   -4.3835681198E+00   -4.3715911505E+00   -4.3596794507E+00
   -4.3478324881E+00   -4.3360497364E+00   -4.3243306751E+00   -4.3126747890E+00
   -4.3010815688E+00   -4.2895505104E+00   -4.2780811152E+00   -4.2666728899E+00
   -4.2553253464E+00   -4.2440380018E+00   -4.2328103784E+00   -4.2216420035E+00
   -4.2105324093E+00   -4.1994811329E+00   -4.1884877165E+00   -4.1775517067E+00
   -4.1666726550E+00   -4.1558501177E+00   -4.1450836556E+00   -4.1343728338E+00
   -4.1237172223E+00   -4.1131163952E+00   -4.1025699312E+00   -4.0920774131E+00
   -4.0816384280E+00   -4.0712525674E+00   -4.0609194266E+00   -4.0506386055E+00
   -4.0404097074E+00   -4.0302323402E+00   -4.0201061154E+00   -4.0100306484E+00
   -4.0000055586E+00   -3.9900304690E+00   -3.9801050067E+00   -3.9702288020E+00
   -3.9604014893E+00   -3.9506227064E+00   -3.9408920947E+00   -3.9312092992E+00
   -3.9215739681E+00   -3.9119857535E+00   -3.9024443105E+00   -3.8929492978E+00
   -3.8835003773E+00   -3.8740972141E+00   -3.8647394767E+00   -3.8554268367E+00
   -3.8461589689E+00   -3.8369355512E+00   -3.8277562646E+00   -3.8186207931E+00
   -3.8095288237E+00   -3.8004800465E+00   -3.7914741544E+00   -3.7825108433E+00
   -3.7735898118E+00   -3.7647107616E+00   -3.7558733969E+00   -3.7470774250E+00
   -3.7383225557E+00   -3.7296085016E+00   -3.7209349778E+00   -3.7123017024E+00
   -3.7037083958E+00   -3.6951547810E+00   -3.6866405838E+00   -3.6781655322E+00
   -3.6697293569E+00   -3.6613317911E+00   -3.6529725703E+00   -3.6446514325E+00
   -3.6363681180E+00   -3.6281223694E+00   -3.6199139319E+00   -3.6117425528E+00
   -3.6036079816E+00   -3.5955099703E+00   -3.5874482729E+00   -3.5794226457E+00
   -3.5714328471E+00   -3.5634786378E+00   -3.5555597805E+00   -3.5476760401E+00
   -3.5398271835E+00   -3.5320129796E+00   -3.5242331995E+00   -3.5164876163E+00
   -3.5087760049E+00   -3.5010981423E+00   -3.4934538074E+00   -3.4858427812E+00
   -3.4782648464E+00   -3.4707197877E+00   -3.4632073916E+00   -3.4557274464E+00
   -3.4482797423E+00   -3.4408640714E+00   -3.4334802274E+00   -3.4261280058E+00
   -3.4188072040E+00   -3.4115176210E+00   -3.4042590575E+00   -3.3970313159E+00
   -3.3898342003E+00   -3.3826675165E+00   -3.3755310719E+00   -3.3684246755E+00
   -3.3613481379E+00   -3.3543012713E+00   -3.3472838896E+00   -3.3402958080E+00
   -3.3333368434E+00   -3.3264068142E+00   -3.3195055403E+00   -3.3126328432E+00
   -3.3057885457E+00   -3.2989724721E+00   -3.2921844481E+00   -3.2854243012E+00
   -3.2786918597E+00   -3.2719869538E+00   -3.2653094149E+00   -3.2586590758E+00
   -3.2520357706E+00   -3.2454393348E+00   -3.2388696053E+00   -3.2323264201E+00
   -3.2258096188E+00   -3.2193190421E+00   -3.2128545319E+00   -3.2064159317E+00
   -3.2000030858E+00   -3.1936158402E+00   -3.1872540419E+00   -3.1809175389E+00
   -3.1746061809E+00   -3.1683198183E+00   -3.1620583031E+00   -3.1558214882E+00
   -3.1496092277E+00   -3.1434213768E+00   -3.1372577921E+00   -3.1311183311E+00
   -3.1250028524E+00   -3.1189112157E+00   -3.1128432819E+00   -3.1067989129E+00
   -3.1007779718E+00   -3.0947803225E+00   -3.0888058303E+00   -3.0828543611E+00
   -3.0769257823E+00   -3.0710199619E+00   -3.0651367693E+00   -3.0592760746E+00
   -3.0534377489E+00   -3.0476216646E+00   -3.0418276946E+00   -3.0360557133E+00
   -3.0303055955E+00   -3.0245772173E+00   -3.0188704557E+00   -3.0131851885E+00
   -3.0075212946E+00   -3.0018786535E+00   -2.9962571460E+00   -2.9906566535E+00
   -2.9850770585E+00   -2.9795182440E+00   -2.9739800944E+00   -2.9684624945E+00
   -2.9629653302E+00   -2.9574884882E+00   -2.9520318559E+00   -2.9465953219E+00
   -2.9411787751E+00   -2.9357821055E+00   -2.9304052041E+00   -2.9250479623E+00
   -2.9197102724E+00   -2.9143920278E+00   -2.9090931223E+00   -2.9038134506E+00
   -2.8985529082E+00   -2.8933113913E+00   -2.8880887969E+00   -2.8828850227E+00
   -2.8776999671E+00   -2.8725335294E+00   -2.8673856094E+00   -2.8622561078E+00
   -2.8571449258E+00   -2.8520519656E+00   -2.8469771299E+00   -2.8419203220E+00
   -2.8368814461E+00   -2.8318604069E+00   -2.8268571100E+00   -2.8218714615E+00
   -2.8169033681E+00   -2.8119527372E+00   -2.8070194771E+00   -2.8021034963E+00
   -2.7972047044E+00   -2.7923230112E+00   -2.7874583275E+00   -2.7826105644E+00
   -2.7777796339E+00   -2.7729654484E+00   -2.7681679210E+00   -2.7633869655E+00
   -2.7586224960E+00   -2.7538744275E+00   -2.7491426754E+00   -2.7444271558E+00
   -2.7397277853E+00   -2.7350444810E+00   -2.7303771607E+00   -2.7257257428E+00
   -2.7210901461E+00   -2.7164702899E+00   -2.7118660943E+00   -2.7072774798E+00
   -2.7027043675E+00   -2.6981466788E+00   -2.6936043358E+00   -2.6890772613E+00
   -2.6845653784E+00   -2.6800686107E+00   -2.6755868824E+00   -2.6711201181E+00
   -2.6666682431E+00   -2.6622311831E+00   -2.6578088641E+00   -2.6534012129E+00
   -2.6490081566E+00   -2.6446296228E+00   -2.6402655397E+00   -2.6359158358E+00