<UPF version="2.0.1">
  <PP_INFO>

 This pseudopotential file has been produced using the code
 ONCVPSP  (Optimized Norm-Conservinng Vanderbilt PSeudopotential)
 fully-relativistic version 4.0.1 06/04/2019 by D. R. Hamann
 The code is available through a link at URL www.mat-simresearch.com.
 Documentation with the package provides a full discription of the
 input data below.


 While it is not required under the terms of the GNU GPL, it is
 suggested that you cite D. R. Hamann, Phys. Rev. B 88, 085117 (2013)
 in any publication using these pseudopotentials.

    <PP_INPUTFILE>
# ATOM AND REFERENCE CONFIGURATION
# atsym  z   nc   nv     iexc    psfile
  Ne 10.00    1    2       4      upf
#
#   n    l    f        energy (Ha)
    1    0    2.00
    2    0    2.00
    2    1    6.00
#
# PSEUDOPOTENTIAL AND OPTIMIZATION
# lmax
    1
#
#   l,   rc,     ep,   ncon, nbas, qcut
    0   1.30000  -1.34000    4    7   8.00000
    1   1.70000  -0.49000    4    7   8.00000
#
# LOCAL POTENTIAL
# lloc, lpopt,  rc(5),   dvloc0
    4    5   1.30000      0.00000
#
# VANDERBILT-KLEINMAN-BYLANDER PROJECTORs
# l, nproj, debl
    0    2   1.50000
    1    2   1.50000
#
# MODEL CORE CHARGE
# icmod, fcfact, rcfact
    0   0.00000   0.00000
#
# LOG DERIVATIVE ANALYSIS
# epsh1, epsh2, depsh
  -12.00   12.00    0.02
#
# OUTPUT GRID
# rlmax, drl
    4.00    0.01
#
# TEST CONFIGURATIONS
# ncnf
    0
# nvcnf
#   n    l    f
    </PP_INPUTFILE>
  </PP_INFO>
  <!--                               -->
  <!-- END OF HUMAN READABLE SECTION -->
  <!--                               -->
    <PP_HEADER
       generated="Generated using ONCVPSP code by D. R. Hamann"
       author="anonymous"
       date="220414"
       comment=""
       element="Ne"
       pseudo_type="NC"
       relativistic="full"
       is_ultrasoft="F"
       is_paw="F"
       is_coulomb="F"
       has_so="T"
       has_wfc="F"
       has_gipaw="F"
       core_correction="F"
       functional="PBE"
       z_valence="    8.00"
       total_psenergy="  -6.66963392178E+01"
       rho_cutoff="   7.53000000000E+00"
       l_max="1"
       l_local="-1"
       mesh_size="   754"
       number_of_wfc="3"
       number_of_proj="6"/>
 <PP_MESH>
   <PP_R type="real"  size=" 754" columns="8">
    0.0000    0.0100    0.0200    0.0300    0.0400    0.0500    0.0600    0.0700
    0.0800    0.0900    0.1000    0.1100    0.1200    0.1300    0.1400    0.1500
    0.1600    0.1700    0.1800    0.1900    0.2000    0.2100    0.2200    0.2300
    0.2400    0.2500    0.2600    0.2700    0.2800    0.2900    0.3000    0.3100
    0.3200    0.3300    0.3400    0.3500    0.3600    0.3700    0.3800    0.3900
    0.4000    0.4100    0.4200    0.4300    0.4400    0.4500    0.4600    0.4700
    0.4800    0.4900    0.5000    0.5100    0.5200    0.5300    0.5400    0.5500
    0.5600    0.5700    0.5800    0.5900    0.6000    0.6100    0.6200    0.6300
    0.6400    0.6500    0.6600    0.6700    0.6800    0.6900    0.7000    0.7100
    0.7200    0.7300    0.7400    0.7500    0.7600    0.7700    0.7800    0.7900
    0.8000    0.8100    0.8200    0.8300    0.8400    0.8500    0.8600    0.8700
    0.8800    0.8900    0.9000    0.9100    0.9200    0.9300    0.9400    0.9500
    0.9600    0.9700    0.9800    0.9900    1.0000    1.0100    1.0200    1.0300
    1.0400    1.0500    1.0600    1.0700    1.0800    1.0900    1.1000    1.1100
    1.1200    1.1300    1.1400    1.1500    1.1600    1.1700    1.1800    1.1900
    1.2000    1.2100    1.2200    1.2300    1.2400    1.2500    1.2600    1.2700
    1.2800    1.2900    1.3000    1.3100    1.3200    1.3300    1.3400    1.3500
    1.3600    1.3700    1.3800    1.3900    1.4000    1.4100    1.4200    1.4300
    1.4400    1.4500    1.4600    1.4700    1.4800    1.4900    1.5000    1.5100
    1.5200    1.5300    1.5400    1.5500    1.5600    1.5700    1.5800    1.5900
    1.6000    1.6100    1.6200    1.6300    1.6400    1.6500    1.6600    1.6700
    1.6800    1.6900    1.7000    1.7100    1.7200    1.7300    1.7400    1.7500
    1.7600    1.7700    1.7800    1.7900    1.8000    1.8100    1.8200    1.8300
    1.8400    1.8500    1.8600    1.8700    1.8800    1.8900    1.9000    1.9100
    1.9200    1.9300    1.9400    1.9500    1.9600    1.9700    1.9800    1.9900
    2.0000    2.0100    2.0200    2.0300    2.0400    2.0500    2.0600    2.0700
    2.0800    2.0900    2.1000    2.1100    2.1200    2.1300    2.1400    2.1500
    2.1600    2.1700    2.1800    2.1900    2.2000    2.2100    2.2200    2.2300
    2.2400    2.2500    2.2600    2.2700    2.2800    2.2900    2.3000    2.3100
    2.3200    2.3300    2.3400    2.3500    2.3600    2.3700    2.3800    2.3900
    2.4000    2.4100    2.4200    2.4300    2.4400    2.4500    2.4600    2.4700
    2.4800    2.4900    2.5000    2.5100    2.5200    2.5300    2.5400    2.5500
    2.5600    2.5700    2.5800    2.5900    2.6000    2.6100    2.6200    2.6300
    2.6400    2.6500    2.6600    2.6700    2.6800    2.6900    2.7000    2.7100
    2.7200    2.7300    2.7400    2.7500    2.7600    2.7700    2.7800    2.7900
    2.8000    2.8100    2.8200    2.8300    2.8400    2.8500    2.8600    2.8700
    2.8800    2.8900    2.9000    2.9100    2.9200    2.9300    2.9400    2.9500
    2.9600    2.9700    2.9800    2.9900    3.0000    3.0100    3.0200    3.0300
    3.0400    3.0500    3.0600    3.0700    3.0800    3.0900    3.1000    3.1100
    3.1200    3.1300    3.1400    3.1500    3.1600    3.1700    3.1800    3.1900
    3.2000    3.2100    3.2200    3.2300    3.2400    3.2500    3.2600    3.2700
    3.2800    3.2900    3.3000    3.3100    3.3200    3.3300    3.3400    3.3500
    3.3600    3.3700    3.3800    3.3900    3.4000    3.4100    3.4200    3.4300
    3.4400    3.4500    3.4600    3.4700    3.4800    3.4900    3.5000    3.5100
    3.5200    3.5300    3.5400    3.5500    3.5600    3.5700    3.5800    3.5900
    3.6000    3.6100    3.6200    3.6300    3.6400    3.6500    3.6600    3.6700
    3.6800    3.6900    3.7000    3.7100    3.7200    3.7300    3.7400    3.7500
    3.7600    3.7700    3.7800    3.7900    3.8000    3.8100    3.8200    3.8300
    3.8400    3.8500    3.8600    3.8700    3.8800    3.8900    3.9000    3.9100
    3.9200    3.9300    3.9400    3.9500    3.9600    3.9700    3.9800    3.9900
    4.0000    4.0100    4.0200    4.0300    4.0400    4.0500    4.0600    4.0700
    4.0800    4.0900    4.1000    4.1100    4.1200    4.1300    4.1400    4.1500
    4.1600    4.1700    4.1800    4.1900    4.2000    4.2100    4.2200    4.2300
    4.2400    4.2500    4.2600    4.2700    4.2800    4.2900    4.3000    4.3100
    4.3200    4.3300    4.3400    4.3500    4.3600    4.3700    4.3800    4.3900
    4.4000    4.4100    4.4200    4.4300    4.4400    4.4500    4.4600    4.4700
    4.4800    4.4900    4.5000    4.5100    4.5200    4.5300    4.5400    4.5500
    4.5600    4.5700    4.5800    4.5900    4.6000    4.6100    4.6200    4.6300
    4.6400    4.6500    4.6600    4.6700    4.6800    4.6900    4.7000    4.7100
    4.7200    4.7300    4.7400    4.7500    4.7600    4.7700    4.7800    4.7900
    4.8000    4.8100    4.8200    4.8300    4.8400    4.8500    4.8600    4.8700
    4.8800    4.8900    4.9000    4.9100    4.9200    4.9300    4.9400    4.9500
    4.9600    4.9700    4.9800    4.9900    5.0000    5.0100    5.0200    5.0300
    5.0400    5.0500    5.0600    5.0700    5.0800    5.0900    5.1000    5.1100
    5.1200    5.1300    5.1400    5.1500    5.1600    5.1700    5.1800    5.1900
    5.2000    5.2100    5.2200    5.2300    5.2400    5.2500    5.2600    5.2700
    5.2800    5.2900    5.3000    5.3100    5.3200    5.3300    5.3400    5.3500
    5.3600    5.3700    5.3800    5.3900    5.4000    5.4100    5.4200    5.4300
    5.4400    5.4500    5.4600    5.4700    5.4800    5.4900    5.5000    5.5100
    5.5200    5.5300    5.5400    5.5500    5.5600    5.5700    5.5800    5.5900
    5.6000    5.6100    5.6200    5.6300    5.6400    5.6500    5.6600    5.6700
    5.6800    5.6900    5.7000    5.7100    5.7200    5.7300    5.7400    5.7500
    5.7600    5.7700    5.7800    5.7900    5.8000    5.8100    5.8200    5.8300
    5.8400    5.8500    5.8600    5.8700    5.8800    5.8900    5.9000    5.9100
    5.9200    5.9300    5.9400    5.9500    5.9600    5.9700    5.9800    5.9900
    6.0000    6.0100    6.0200    6.0300    6.0400    6.0500    6.0600    6.0700
    6.0800    6.0900    6.1000    6.1100    6.1200    6.1300    6.1400    6.1500
    6.1600    6.1700    6.1800    6.1900    6.2000    6.2100    6.2200    6.2300
    6.2400    6.2500    6.2600    6.2700    6.2800    6.2900    6.3000    6.3100
    6.3200    6.3300    6.3400    6.3500    6.3600    6.3700    6.3800    6.3900
    6.4000    6.4100    6.4200    6.4300    6.4400    6.4500    6.4600    6.4700
    6.4800    6.4900    6.5000    6.5100    6.5200    6.5300    6.5400    6.5500
    6.5600    6.5700    6.5800    6.5900    6.6000    6.6100    6.6200    6.6300
    6.6400    6.6500    6.6600    6.6700    6.6800    6.6900    6.7000    6.7100
    6.7200    6.7300    6.7400    6.7500    6.7600    6.7700    6.7800    6.7900
    6.8000    6.8100    6.8200    6.8300    6.8400    6.8500    6.8600    6.8700
    6.8800    6.8900    6.9000    6.9100    6.9200    6.9300    6.9400    6.9500
    6.9600    6.9700    6.9800    6.9900    7.0000    7.0100    7.0200    7.0300
    7.0400    7.0500    7.0600    7.0700    7.0800    7.0900    7.1000    7.1100
    7.1200    7.1300    7.1400    7.1500    7.1600    7.1700    7.1800    7.1900
    7.2000    7.2100    7.2200    7.2300    7.2400    7.2500    7.2600    7.2700
    7.2800    7.2900    7.3000    7.3100    7.3200    7.3300    7.3400    7.3500
    7.3600    7.3700    7.3800    7.3900    7.4000    7.4100    7.4200    7.4300
    7.4400    7.4500    7.4600    7.4700    7.4800    7.4900    7.5000    7.5100
    7.5200    7.5300
   </PP_R>
   <PP_RAB type="real"  size=" 754" columns="8">
    0.0100    0.0100    0.0100    0.0100    0.0100    0.0100    0.0100    0.0100
    0.0100    0.0100    0.0100    0.0100    0.0100    0.0100    0.0100    0.0100
    0.0100    0.0100    0.0100    0.0100    0.0100    0.0100    0.0100    0.0100
    0.0100    0.0100    0.0100    0.0100    0.0100    0.0100    0.0100    0.0100
    0.0100    0.0100    0.0100    0.0100    0.0100    0.0100    0.0100    0.0100
    0.0100    0.0100    0.0100    0.0100    0.0100    0.0100    0.0100    0.0100
    0.0100    0.0100    0.0100    0.0100    0.0100    0.0100    0.0100    0.0100
    0.0100    0.0100    0.0100    0.0100    0.0100    0.0100    0.0100    0.0100
    0.0100    0.0100    0.0100    0.0100    0.0100    0.0100    0.0100    0.0100
    0.0100    0.0100    0.0100    0.0100    0.0100    0.0100    0.0100    0.0100
    0.0100    0.0100    0.0100    0.0100    0.0100    0.0100    0.0100    0.0100
    0.0100    0.0100    0.0100    0.0100    0.0100    0.0100    0.0100    0.0100
    0.0100    0.0100    0.0100    0.0100    0.0100    0.0100    0.0100    0.0100
    0.0100    0.0100    0.0100    0.0100    0.0100    0.0100    0.0100    0.0100
    0.0100    0.0100    0.0100    0.0100    0.0100    0.0100    0.0100    0.0100
    0.0100    0.0100    0.0100    0.0100    0.0100    0.0100    0.0100    0.0100
    0.0100    0.0100    0.0100    0.0100    0.0100    0.0100    0.0100    0.0100
    0.0100    0.0100    0.0100    0.0100    0.0100    0.0100    0.0100    0.0100
    0.0100    0.0100    0.0100    0.0100    0.0100    0.0100    0.0100    0.0100
    0.0100    0.0100    0.0100    0.0100    0.0100    0.0100    0.0100    0.0100
    0.0100    0.0100    0.0100    0.0100    0.0100    0.0100    0.0100    0.0100
    0.0100    0.0100    0.0100    0.0100    0.0100    0.0100    0.0100    0.0100
    0.0100    0.0100    0.0100    0.0100    0.0100    0.0100    0.0100    0.0100
    0.0100    0.0100    0.0100    0.0100    0.0100    0.0100    0.0100    0.0100
    0.0100    0.0100    0.0100    0.0100    0.0100    0.0100    0.0100    0.0100
    0.0100    0.0100    0.0100    0.0100    0.0100    0.0100    0.0100    0.0100
    0.0100    0.0100    0.0100    0.0100    0.0100    0.0100    0.0100    0.0100
    0.0100    0.0100    0.0100    0.0100    0.0100    0.0100    0.0100    0.0100
    0.0100    0.0100    0.0100    0.0100    0.0100    0.0100    0.0100    0.0100
    0.0100    0.0100    0.0100    0.0100    0.0100    0.0100    0.0100    0.0100
    0.0100    0.0100    0.0100    0.0100    0.0100    0.0100    0.0100    0.0100
    0.0100    0.0100    0.0100    0.0100    0.0100    0.0100    0.0100    0.0100
    0.0100    0.0100    0.0100    0.0100    0.0100    0.0100    0.0100    0.0100
    0.0100    0.0100    0.0100    0.0100    0.0100    0.0100    0.0100    0.0100
    0.0100    0.0100    0.0100    0.0100    0.0100    0.0100    0.0100    0.0100
    0.0100    0.0100    0.0100    0.0100    0.0100    0.0100    0.0100    0.0100
    0.0100    0.0100    0.0100    0.0100    0.0100    0.0100    0.0100    0.0100
    0.0100    0.0100    0.0100    0.0100    0.0100    0.0100    0.0100    0.0100
    0.0100    0.0100    0.0100    0.0100    0.0100    0.0100    0.0100    0.0100
    0.0100    0.0100    0.0100    0.0100    0.0100    0.0100    0.0100    0.0100
    0.0100    0.0100    0.0100    0.0100    0.0100    0.0100    0.0100    0.0100
    0.0100    0.0100    0.0100    0.0100    0.0100    0.0100    0.0100    0.0100
    0.0100    0.0100    0.0100    0.0100    0.0100    0.0100    0.0100    0.0100
    0.0100    0.0100    0.0100    0.0100    0.0100    0.0100    0.0100    0.0100
    0.0100    0.0100    0.0100    0.0100    0.0100    0.0100    0.0100    0.0100
    0.0100    0.0100    0.0100    0.0100    0.0100    0.0100    0.0100    0.0100
    0.0100    0.0100    0.0100    0.0100    0.0100    0.0100    0.0100    0.0100
    0.0100    0.0100    0.0100    0.0100    0.0100    0.0100    0.0100    0.0100
    0.0100    0.0100    0.0100    0.0100    0.0100    0.0100    0.0100    0.0100
    0.0100    0.0100    0.0100    0.0100    0.0100    0.0100    0.0100    0.0100
    0.0100    0.0100    0.0100    0.0100    0.0100    0.0100    0.0100    0.0100
    0.0100    0.0100    0.0100    0.0100    0.0100    0.0100    0.0100    0.0100
    0.0100    0.0100    0.0100    0.0100    0.0100    0.0100    0.0100    0.0100
    0.0100    0.0100    0.0100    0.0100    0.0100    0.0100    0.0100    0.0100
    0.0100    0.0100    0.0100    0.0100    0.0100    0.0100    0.0100    0.0100
    0.0100    0.0100    0.0100    0.0100    0.0100    0.0100    0.0100    0.0100
    0.0100    0.0100    0.0100    0.0100    0.0100    0.0100    0.0100    0.0100
    0.0100    0.0100    0.0100    0.0100    0.0100    0.0100    0.0100    0.0100
    0.0100    0.0100    0.0100    0.0100    0.0100    0.0100    0.0100    0.0100
    0.0100    0.0100    0.0100    0.0100    0.0100    0.0100    0.0100    0.0100
    0.0100    0.0100    0.0100    0.0100    0.0100    0.0100    0.0100    0.0100
    0.0100    0.0100    0.0100    0.0100    0.0100    0.0100    0.0100    0.0100
    0.0100    0.0100    0.0100    0.0100    0.0100    0.0100    0.0100    0.0100
    0.0100    0.0100    0.0100    0.0100    0.0100    0.0100    0.0100    0.0100
    0.0100    0.0100    0.0100    0.0100    0.0100    0.0100    0.0100    0.0100
    0.0100    0.0100    0.0100    0.0100    0.0100    0.0100    0.0100    0.0100
    0.0100    0.0100    0.0100    0.0100    0.0100    0.0100    0.0100    0.0100
    0.0100    0.0100    0.0100    0.0100    0.0100    0.0100    0.0100    0.0100
    0.0100    0.0100    0.0100    0.0100    0.0100    0.0100    0.0100    0.0100
    0.0100    0.0100    0.0100    0.0100    0.0100    0.0100    0.0100    0.0100
    0.0100    0.0100    0.0100    0.0100    0.0100    0.0100    0.0100    0.0100
    0.0100    0.0100    0.0100    0.0100    0.0100    0.0100    0.0100    0.0100
    0.0100    0.0100    0.0100    0.0100    0.0100    0.0100    0.0100    0.0100
    0.0100    0.0100    0.0100    0.0100    0.0100    0.0100    0.0100    0.0100
    0.0100    0.0100    0.0100    0.0100    0.0100    0.0100    0.0100    0.0100
    0.0100    0.0100    0.0100    0.0100    0.0100    0.0100    0.0100    0.0100
    0.0100    0.0100    0.0100    0.0100    0.0100    0.0100    0.0100    0.0100
    0.0100    0.0100    0.0100    0.0100    0.0100    0.0100    0.0100    0.0100
    0.0100    0.0100    0.0100    0.0100    0.0100    0.0100    0.0100    0.0100
    0.0100    0.0100    0.0100    0.0100    0.0100    0.0100    0.0100    0.0100
    0.0100    0.0100    0.0100    0.0100    0.0100    0.0100    0.0100    0.0100
    0.0100    0.0100    0.0100    0.0100    0.0100    0.0100    0.0100    0.0100
    0.0100    0.0100    0.0100    0.0100    0.0100    0.0100    0.0100    0.0100
    0.0100    0.0100    0.0100    0.0100    0.0100    0.0100    0.0100    0.0100
    0.0100    0.0100    0.0100    0.0100    0.0100    0.0100    0.0100    0.0100
    0.0100    0.0100    0.0100    0.0100    0.0100    0.0100    0.0100    0.0100
    0.0100    0.0100    0.0100    0.0100    0.0100    0.0100    0.0100    0.0100
    0.0100    0.0100    0.0100    0.0100    0.0100    0.0100    0.0100    0.0100
    0.0100    0.0100    0.0100    0.0100    0.0100    0.0100    0.0100    0.0100
    0.0100    0.0100    0.0100    0.0100    0.0100    0.0100    0.0100    0.0100
    0.0100    0.0100    0.0100    0.0100    0.0100    0.0100    0.0100    0.0100
    0.0100    0.0100    0.0100    0.0100    0.0100    0.0100    0.0100    0.0100
    0.0100    0.0100    0.0100    0.0100    0.0100    0.0100    0.0100    0.0100
    0.0100    0.0100    0.0100    0.0100    0.0100    0.0100    0.0100    0.0100
    0.0100    0.0100
   </PP_RAB>
 </PP_MESH>
  <PP_LOCAL type="real"  size=" 754" columns="4">
   -2.7070011299E+01   -2.7081183642E+01   -2.7110050762E+01   -2.7149999265E+01
   -2.7191950760E+01   -2.7227649959E+01   -2.7251279383E+01   -2.7259818740E+01
   -2.7252567025E+01   -2.7230361632E+01   -2.7194852194E+01   -2.7147973470E+01
   -2.7091625169E+01   -2.7027510747E+01   -2.6957079087E+01   -2.6881524038E+01
   -2.6801811532E+01   -2.6718716167E+01   -2.6632857640E+01   -2.6544732646E+01
   -2.6454740842E+01   -2.6363204999E+01   -2.6270386109E+01   -2.6176494409E+01
   -2.6081697260E+01   -2.5986124647E+01   -2.5889872947E+01   -2.5793007445E+01
   -2.5695563972E+01   -2.5597549987E+01   -2.5498945322E+01   -2.5399702846E+01
   -2.5299749235E+01   -2.5198986050E+01   -2.5097291317E+01   -2.4994521759E+01
   -2.4890515813E+01   -2.4785097501E+01   -2.4678081151E+01   -2.4569276890E+01
   -2.4458496730E+01   -2.4345560986E+01   -2.4230304716E+01   -2.4112583789E+01
   -2.3992280243E+01   -2.3869306563E+01   -2.3743608646E+01   -2.3615167270E+01
   -2.3483998034E+01   -2.3350149839E+01   -2.3213702107E+01   -2.3074760990E+01
   -2.2933454889E+01   -2.2789929622E+01   -2.2644343538E+01   -2.2496862853E+01
   -2.2347657427E+01   -2.2196897103E+01   -2.2044748710E+01   -2.1891373735E+01
   -2.1736926646E+01   -2.1581553798E+01   -2.1425392852E+01   -2.1268572608E+01
   -2.1111213156E+01   -2.0953426270E+01   -2.0795315957E+01   -2.0636979104E+01
   -2.0478506160E+01   -2.0319981825E+01   -2.0161485706E+01   -2.0003092923E+01
   -1.9844874655E+01   -1.9686898615E+01   -1.9529229459E+01   -1.9371929124E+01
   -1.9215057105E+01   -1.9058670667E+01   -1.8902825014E+01   -1.8747573407E+01
   -1.8592967247E+01   -1.8439056123E+01   -1.8285887839E+01   -1.8133508417E+01
   -1.7981962088E+01   -1.7831291269E+01   -1.7681536541E+01   -1.7532736615E+01
   -1.7384928306E+01   -1.7238146509E+01   -1.7092424175E+01   -1.6947792301E+01
   -1.6804279924E+01   -1.6661914129E+01   -1.6520720061E+01   -1.6380720956E+01
   -1.6241938180E+01   -1.6104391275E+01   -1.5968098025E+01   -1.5833074522E+01
   -1.5699335246E+01   -1.5566893156E+01   -1.5435759777E+01   -1.5305945300E+01
   -1.5177458681E+01   -1.5050307737E+01   -1.4924499243E+01   -1.4800039025E+01
   -1.4676932042E+01   -1.4555182460E+01   -1.4434793720E+01   -1.4315768584E+01
   -1.4198109175E+01   -1.4081816997E+01   -1.3966892941E+01   -1.3853337272E+01
   -1.3741149605E+01   -1.3630328855E+01   -1.3520873186E+01   -1.3412779929E+01
   -1.3306045507E+01   -1.3200665329E+01   -1.3096633692E+01   -1.2993943666E+01
   -1.2892586978E+01   -1.2792553874E+01   -1.2693833034E+01   -1.2596411491E+01
   -1.2500274453E+01   -1.2405405220E+01   -1.2311785023E+01   -1.2219395071E+01
   -1.2128221321E+01   -1.2038243687E+01   -1.1949440734E+01   -1.1861792191E+01
   -1.1775278664E+01   -1.1689881595E+01   -1.1605583241E+01   -1.1522366650E+01
   -1.1440215635E+01   -1.1359114764E+01   -1.1279049341E+01   -1.1200005387E+01
   -1.1121969625E+01   -1.1044929454E+01   -1.0968872918E+01   -1.0893788671E+01
   -1.0819665931E+01   -1.0746494423E+01   -1.0674264312E+01   -1.0602966127E+01
   -1.0532590669E+01   -1.0463128911E+01   -1.0394571894E+01   -1.0326910600E+01
   -1.0260135833E+01   -1.0194238091E+01   -1.0129207431E+01   -1.0065033345E+01
   -1.0001704636E+01   -9.9392093061E+00   -9.8775344571E+00   -9.8166662049E+00
   -9.7565896228E+00   -9.6972887116E+00   -9.6387463860E+00   -9.5809444882E+00
   -9.5238638428E+00   -9.4674843658E+00   -9.4117851009E+00   -9.3567445873E+00
   -9.3023446498E+00   -9.2485735919E+00   -9.1954205869E+00   -9.1428750512E+00
   -9.0909266288E+00   -9.0395651993E+00   -8.9887808693E+00   -8.9385639668E+00
   -8.8889050343E+00   -8.8397948238E+00   -8.7912242901E+00   -8.7431845861E+00
   -8.6956670567E+00   -8.6486632343E+00   -8.6021648330E+00   -8.5561637445E+00
   -8.5106520328E+00   -8.4656219300E+00   -8.4210658316E+00   -8.3769762924E+00
   -8.3333460224E+00   -8.2901678826E+00   -8.2474348813E+00   -8.2051401701E+00
   -8.1632770404E+00   -8.1218389199E+00   -8.0808193690E+00   -8.0402120775E+00
   -8.0000108615E+00   -7.9602096602E+00   -7.9208025326E+00   -7.8817836550E+00
   -7.8431473180E+00   -7.8048879223E+00   -7.7669999803E+00   -7.7294781085E+00
   -7.6923170241E+00   -7.6555115511E+00   -7.6190566087E+00   -7.5829472128E+00
   -7.5471784736E+00   -7.5117455931E+00   -7.4766438630E+00   -7.4418686626E+00
   -7.4074154567E+00   -7.3732797938E+00   -7.3394573039E+00   -7.3059436970E+00
   -7.2727347611E+00   -7.2398263603E+00   -7.2072144333E+00   -7.1748949917E+00
   -7.1428641182E+00   -7.1111179653E+00   -7.0796527534E+00   -7.0484647697E+00
   -7.0175503664E+00   -6.9869059595E+00   -6.9565280272E+00   -6.9264131088E+00
   -6.8965578033E+00   -6.8669587680E+00   -6.8376127174E+00   -6.8085164218E+00
   -6.7796667065E+00   -6.7510604500E+00   -6.7226945837E+00   -6.6945660899E+00
   -6.6666720017E+00   -6.6390094009E+00   -6.6115754180E+00   -6.5843672304E+00
   -6.5573820621E+00   -6.5306171820E+00   -6.5040699039E+00   -6.4777375846E+00
   -6.4516176240E+00   -6.4257074634E+00   -6.4000045852E+00   -6.3745065119E+00
   -6.3492108054E+00   -6.3241150661E+00   -6.2992169320E+00   -6.2745140785E+00
   -6.2500042170E+00   -6.2256850948E+00   -6.2015544939E+00   -6.1776102307E+00
   -6.1538501550E+00   -6.1302721498E+00   -6.1068741303E+00   -6.0836540434E+00
   -6.0606098672E+00   -6.0377396101E+00   -6.0150413106E+00   -5.9925130367E+00
   -5.9701528851E+00   -5.9479589807E+00   -5.9259294764E+00   -5.9040625523E+00
   -5.8823564150E+00   -5.8608092979E+00   -5.8394194596E+00   -5.8181851845E+00
   -5.7971047816E+00   -5.7761765845E+00   -5.7553989506E+00   -5.7347702609E+00
   -5.7142889196E+00   -5.6939533536E+00   -5.6737620120E+00   -5.6537133660E+00
   -5.6338059081E+00   -5.6140381523E+00   -5.5944086330E+00   -5.5749159054E+00
   -5.5555585444E+00   -5.5363351448E+00   -5.5172443209E+00   -5.4982847058E+00
   -5.4794549515E+00   -5.4607537285E+00   -5.4421797250E+00   -5.4237316474E+00
   -5.4054082193E+00   -5.3872081817E+00   -5.3691302924E+00   -5.3511733257E+00
   -5.3333360725E+00   -5.3156173396E+00   -5.2980159496E+00   -5.2805307407E+00
   -5.2631605664E+00   -5.2459042951E+00   -5.2287608102E+00   -5.2117290095E+00
   -5.1948078052E+00   -5.1779961234E+00   -5.1612929044E+00   -5.1446971018E+00
   -5.1282076827E+00   -5.1118236276E+00   -5.0955439297E+00   -5.0793675951E+00
   -5.0632936426E+00   -5.0473211032E+00   -5.0314490202E+00   -5.0156764488E+00
   -5.0000024562E+00   -4.9844261210E+00   -4.9689465333E+00   -4.9535627947E+00
   -4.9382740174E+00   -4.9230793251E+00   -4.9079778519E+00   -4.8929687425E+00
   -4.8780511522E+00   -4.8632242464E+00   -4.8484872007E+00   -4.8338392007E+00
   -4.8192794418E+00   -4.8048071289E+00   -4.7904214766E+00   -4.7761217089E+00
   -4.7619070589E+00   -4.7477767689E+00   -4.7337300901E+00   -4.7197662826E+00
   -4.7058846152E+00   -4.6920843653E+00   -4.6783648186E+00   -4.6647252692E+00
   -4.6511650196E+00   -4.6376833802E+00   -4.6242796693E+00   -4.6109532133E+00
   -4.5977033461E+00   -4.5845294094E+00   -4.5714307523E+00   -4.5584067315E+00
   -4.5454567107E+00   -4.5325800612E+00   -4.5197761611E+00   -4.5070443957E+00
   -4.4943841570E+00   -4.4817948440E+00   -4.4692758623E+00   -4.4568266243E+00
   -4.4444465487E+00   -4.4321350607E+00   -4.4198915920E+00   -4.4077155804E+00
   -4.3956064700E+00   -4.3835637108E+00   -4.3715867590E+00   -4.3596750766E+00
   -4.3478281317E+00   -4.3360453978E+00   -4.3243263543E+00   -4.3126704862E+00
   -4.3010772841E+00   -4.2895462438E+00   -4.2780768669E+00   -4.2666686599E+00
   -4.2553211349E+00   -4.2440338088E+00   -4.2328062041E+00   -4.2216378478E+00
   -4.2105282724E+00   -4.1994770149E+00   -4.1884836174E+00   -4.1775476266E+00
   -4.1666685940E+00   -4.1558460759E+00   -4.1450796329E+00   -4.1343688305E+00
   -4.1237132383E+00   -4.1131124306E+00   -4.1025659860E+00   -4.0920734874E+00
   -4.0816345219E+00   -4.0712486808E+00   -4.0609155597E+00   -4.0506347582E+00
   -4.0404058799E+00   -4.0302285324E+00   -4.0201023274E+00   -4.0100268802E+00
   -4.0000018102E+00   -3.9900267405E+00   -3.9801012980E+00   -3.9702251133E+00
   -3.9603978205E+00   -3.9506190575E+00   -3.9408884658E+00   -3.9312056901E+00
   -3.9215703791E+00   -3.9119821844E+00   -3.9024407614E+00   -3.8929457686E+00
   -3.8834968680E+00   -3.8740937247E+00   -3.8647360073E+00   -3.8554233872E+00
   -3.8461555393E+00   -3.8369321415E+00   -3.8277528747E+00   -3.8186174231E+00
   -3.8095254735E+00   -3.8004767161E+00   -3.7914708438E+00   -3.7825075524E+00
   -3.7735865406E+00   -3.7647075100E+00   -3.7558701650E+00   -3.7470742127E+00
   -3.7383193630E+00   -3.7296053284E+00   -3.7209318241E+00   -3.7122985681E+00
   -3.7037052809E+00   -3.6951516855E+00   -3.6866375076E+00   -3.6781624752E+00
   -3.6697263192E+00   -3.6613287725E+00   -3.6529695708E+00   -3.6446484520E+00
   -3.6363651565E+00   -3.6281194268E+00   -3.6199110082E+00   -3.6117396479E+00
   -3.6036050954E+00   -3.5955071028E+00   -3.5874454240E+00   -3.5794198153E+00
   -3.5714300353E+00   -3.5634758444E+00   -3.5555570055E+00   -3.5476732833E+00
   -3.5398244449E+00   -3.5320102592E+00   -3.5242304971E+00   -3.5164849319E+00
   -3.5087733384E+00   -3.5010954936E+00   -3.4934511765E+00   -3.4858401680E+00
   -3.4782622509E+00   -3.4707172097E+00   -3.4632048310E+00   -3.4557249032E+00
   -3.4482772165E+00   -3.4408615628E+00   -3.4334777359E+00   -3.4261255314E+00
   -3.4188047466E+00   -3.4115151804E+00   -3.4042566337E+00   -3.3970289089E+00
   -3.3898318100E+00   -3.3826651428E+00   -3.3755287146E+00   -3.3684223346E+00
   -3.3613458134E+00   -3.3542989630E+00   -3.3472815974E+00   -3.3402935319E+00
   -3.3333345833E+00   -3.3264045700E+00   -3.3195033120E+00   -3.3126306306E+00
   -3.3057863487E+00   -3.2989702907E+00   -3.2921822822E+00   -3.2854221506E+00
   -3.2786897245E+00   -3.2719848338E+00   -3.2653073101E+00   -3.2586569860E+00
   -3.2520336958E+00   -3.2454372748E+00   -3.2388675601E+00   -3.2323243897E+00
   -3.2258076030E+00   -3.2193170408E+00   -3.2128525451E+00   -3.2064139592E+00
   -3.2000011277E+00   -3.1936138962E+00   -3.1872521120E+00   -3.1809156231E+00
   -3.1746042790E+00   -3.1683179303E+00   -3.1620564288E+00   -3.1558196276E+00
   -3.1496073807E+00   -3.1434195434E+00   -3.1372559721E+00   -3.1311165245E+00
   -3.1250010590E+00   -3.1189094355E+00   -3.1128415148E+00   -3.1067971589E+00
   -3.1007762307E+00   -3.0947785943E+00   -3.0888041148E+00   -3.0828526584E+00
   -3.0769240922E+00   -3.0710182844E+00   -3.0651351042E+00   -3.0592744218E+00
   -3.0534361085E+00   -3.0476200364E+00   -3.0418260786E+00   -3.0360541093E+00
   -3.0303040035E+00   -3.0245756372E+00   -3.0188688874E+00   -3.0131836320E+00
   -3.0075197497E+00   -3.0018771203E+00   -2.9962556243E+00   -2.9906551433E+00
   -2.9850755596E+00   -2.9795167564E+00   -2.9739786180E+00   -2.9684610293E+00
   -2.9629638761E+00   -2.9574870450E+00   -2.9520304237E+00   -2.9465939005E+00
   -2.9411773645E+00   -2.9357807057E+00   -2.9304038149E+00   -2.9250465836E+00
   -2.9197089043E+00   -2.9143906701E+00   -2.9090917750E+00   -2.9038121136E+00
   -2.8985515814E+00   -2.8933100746E+00   -2.8880874903E+00   -2.8828837261E+00
   -2.8776986805E+00   -2.8725322526E+00   -2.8673843425E+00   -2.8622548506E+00
   -2.8571436783E+00   -2.8520507277E+00   -2.8469759015E+00   -2.8419191031E+00
   -2.8368802367E+00   -2.8318592069E+00   -2.8268559193E+00   -2.8218702800E+00
   -2.8169021957E+00   -2.8119515740E+00   -2.8070183229E+00   -2.8021023511E+00
   -2.7972035681E+00   -2.7923218838E+00   -2.7874572088E+00   -2.7826094545E+00
   -2.7777785327E+00   -2.7729643558E+00   -2.7681668370E+00   -2.7633858900E+00
   -2.7586214290E+00   -2.7538733689E+00   -2.7491416252E+00   -2.7444261138E+00
   -2.7397267515E+00   -2.7350434554E+00   -2.7303761433E+00   -2.7257247334E+00
   -2.7210891447E+00   -2.7164692965E+00   -2.7118651088E+00   -2.7072765022E+00
   -2.7027033976E+00   -2.6981457167E+00   -2.6936033814E+00   -2.6890763146E+00
   -2.6845644393E+00   -2.6800676791E+00   -2.6755859583E+00   -2.6711192015E+00
   -2.6666673339E+00   -2.6622302812E+00   -2.6578079695E+00   -2.6534003255E+00
   -2.6490072764E+00   -2.6446287498E+00   -2.6402646738E+00   -2.6359149770E+00