<UPF version="2.0.1">
  <PP_INFO>

 This pseudopotential file has been produced using the code
 ONCVPSP  (Optimized Norm-Conservinng Vanderbilt PSeudopotential)
 scalar-relativistic version 3.3.1 12/12/2017 by D. R. Hamann
 The code is available through a link at URL www.mat-simresearch.com.
 Documentation with the package provides a full discription of the
 input data below.


 While it is not required under the terms of the GNU GPL, it is
 suggested that you cite D. R. Hamann, Phys. Rev. B 88, 085117 (2013)
 in any publication using these pseudopotentials.

    <PP_INPUTFILE>
# ATOM AND REFERENCE CONFIGURATION
# atsym  z   nc   nv     iexc    psfile
  Ar 18.00    3    2       3      upf
#
#   n    l    f        energy (Ha)
    1    0    2.00
    2    0    2.00
    2    1    6.00
    3    0    2.00
    3    1    6.00
#
# PSEUDOPOTENTIAL AND OPTIMIZATION
# lmax
    2
#
#   l,   rc,      ep,       ncon, nbas, qcut
    0   1.55000  -0.88325    4    8   8.20000
    1   1.55000  -0.38230    4    8   8.20000
    2   1.55000   0.10000    4    8   8.20000
#
# LOCAL POTENTIAL
# lloc, lpopt,  rc(5),   dvloc0
    4    5   1.50000      0.00000
#
# VANDERBILT-KLEINMAN-BYLANDER PROJECTORs
# l, nproj, debl
    0    2   1.50000
    1    2   1.50000
    2    2   1.00000
#
# MODEL CORE CHARGE
# icmod, fcfact, rcfact
    3   7.00000   1.25000
#
# LOG DERIVATIVE ANALYSIS
# epsh1, epsh2, depsh
  -12.00   12.00    0.02
#
# OUTPUT GRID
# rlmax, drl
    4.00    0.01
#
# TEST CONFIGURATIONS
# ncnf
    0
# nvcnf
#   n    l    f
    </PP_INPUTFILE>
  </PP_INFO>
  <!--                               -->
  <!-- END OF HUMAN READABLE SECTION -->
  <!--                               -->
    <PP_HEADER
       generated="Generated using ONCVPSP code by D. R. Hamann"
       author="anonymous"
       date="220413"
       comment=""
       element="Ar"
       pseudo_type="NC"
       relativistic="scalar"
       is_ultrasoft="F"
       is_paw="F"
       is_coulomb="F"
       has_so="F"
       has_wfc="F"
       has_gipaw="F"
       core_correction="T"
       functional="PZ"
       z_valence="    8.00"
       total_psenergy="  -4.23086810763E+01"
       rho_cutoff="   9.25000000000E+00"
       l_max="2"
       l_local="-1"
       mesh_size="   926"
       number_of_wfc="2"
       number_of_proj="6"/>
 <PP_MESH>
   <PP_R type="real"  size=" 926" columns="8">
    0.0000    0.0100    0.0200    0.0300    0.0400    0.0500    0.0600    0.0700
    0.0800    0.0900    0.1000    0.1100    0.1200    0.1300    0.1400    0.1500
    0.1600    0.1700    0.1800    0.1900    0.2000    0.2100    0.2200    0.2300
    0.2400    0.2500    0.2600    0.2700    0.2800    0.2900    0.3000    0.3100
    0.3200    0.3300    0.3400    0.3500    0.3600    0.3700    0.3800    0.3900
    0.4000    0.4100    0.4200    0.4300    0.4400    0.4500    0.4600    0.4700
    0.4800    0.4900    0.5000    0.5100    0.5200    0.5300    0.5400    0.5500
    0.5600    0.5700    0.5800    0.5900    0.6000    0.6100    0.6200    0.6300
    0.6400    0.6500    0.6600    0.6700    0.6800    0.6900    0.7000    0.7100
    0.7200    0.7300    0.7400    0.7500    0.7600    0.7700    0.7800    0.7900
    0.8000    0.8100    0.8200    0.8300    0.8400    0.8500    0.8600    0.8700
    0.8800    0.8900    0.9000    0.9100    0.9200    0.9300    0.9400    0.9500
    0.9600    0.9700    0.9800    0.9900    1.0000    1.0100    1.0200    1.0300
    1.0400    1.0500    1.0600    1.0700    1.0800    1.0900    1.1000    1.1100
    1.1200    1.1300    1.1400    1.1500    1.1600    1.1700    1.1800    1.1900
    1.2000    1.2100    1.2200    1.2300    1.2400    1.2500    1.2600    1.2700
    1.2800    1.2900    1.3000    1.3100    1.3200    1.3300    1.3400    1.3500
    1.3600    1.3700    1.3800    1.3900    1.4000    1.4100    1.4200    1.4300
    1.4400    1.4500    1.4600    1.4700    1.4800    1.4900    1.5000    1.5100
    1.5200    1.5300    1.5400    1.5500    1.5600    1.5700    1.5800    1.5900
    1.6000    1.6100    1.6200    1.6300    1.6400    1.6500    1.6600    1.6700
    1.6800    1.6900    1.7000    1.7100    1.7200    1.7300    1.7400    1.7500
    1.7600    1.7700    1.7800    1.7900    1.8000    1.8100    1.8200    1.8300
    1.8400    1.8500    1.8600    1.8700    1.8800    1.8900    1.9000    1.9100
    1.9200    1.9300    1.9400    1.9500    1.9600    1.9700    1.9800    1.9900
    2.0000    2.0100    2.0200    2.0300    2.0400    2.0500    2.0600    2.0700
    2.0800    2.0900    2.1000    2.1100    2.1200    2.1300    2.1400    2.1500
    2.1600    2.1700    2.1800    2.1900    2.2000    2.2100    2.2200    2.2300
    2.2400    2.2500    2.2600    2.2700    2.2800    2.2900    2.3000    2.3100
    2.3200    2.3300    2.3400    2.3500    2.3600    2.3700    2.3800    2.3900
    2.4000    2.4100    2.4200    2.4300    2.4400    2.4500    2.4600    2.4700
    2.4800    2.4900    2.5000    2.5100    2.5200    2.5300    2.5400    2.5500
    2.5600    2.5700    2.5800    2.5900    2.6000    2.6100    2.6200    2.6300
    2.6400    2.6500    2.6600    2.6700    2.6800    2.6900    2.7000    2.7100
    2.7200    2.7300    2.7400    2.7500    2.7600    2.7700    2.7800    2.7900
    2.8000    2.8100    2.8200    2.8300    2.8400    2.8500    2.8600    2.8700
    2.8800    2.8900    2.9000    2.9100    2.9200    2.9300    2.9400    2.9500
    2.9600    2.9700    2.9800    2.9900    3.0000    3.0100    3.0200    3.0300
    3.0400    3.0500    3.0600    3.0700    3.0800    3.0900    3.1000    3.1100
    3.1200    3.1300    3.1400    3.1500    3.1600    3.1700    3.1800    3.1900
    3.2000    3.2100    3.2200    3.2300    3.2400    3.2500    3.2600    3.2700
    3.2800    3.2900    3.3000    3.3100    3.3200    3.3300    3.3400    3.3500
    3.3600    3.3700    3.3800    3.3900    3.4000    3.4100    3.4200    3.4300
    3.4400    3.4500    3.4600    3.4700    3.4800    3.4900    3.5000    3.5100
    3.5200    3.5300    3.5400    3.5500    3.5600    3.5700    3.5800    3.5900
    3.6000    3.6100    3.6200    3.6300    3.6400    3.6500    3.6600    3.6700
    3.6800    3.6900    3.7000    3.7100    3.7200    3.7300    3.7400    3.7500
    3.7600    3.7700    3.7800    3.7900    3.8000    3.8100    3.8200    3.8300
    3.8400    3.8500    3.8600    3.8700    3.8800    3.8900    3.9000    3.9100
    3.9200    3.9300    3.9400    3.9500    3.9600    3.9700    3.9800    3.9900
    4.0000    4.0100    4.0200    4.0300    4.0400    4.0500    4.0600    4.0700
    4.0800    4.0900    4.1000    4.1100    4.1200    4.1300    4.1400    4.1500
    4.1600    4.1700    4.1800    4.1900    4.2000    4.2100    4.2200    4.2300
    4.2400    4.2500    4.2600    4.2700    4.2800    4.2900    4.3000    4.3100
    4.3200    4.3300    4.3400    4.3500    4.3600    4.3700    4.3800    4.3900
    4.4000    4.4100    4.4200    4.4300    4.4400    4.4500    4.4600    4.4700
    4.4800    4.4900    4.5000    4.5100    4.5200    4.5300    4.5400    4.5500
    4.5600    4.5700    4.5800    4.5900    4.6000    4.6100    4.6200    4.6300
    4.6400    4.6500    4.6600    4.6700    4.6800    4.6900    4.7000    4.7100
    4.7200    4.7300    4.7400    4.7500    4.7600    4.7700    4.7800    4.7900
    4.8000    4.8100    4.8200    4.8300    4.8400    4.8500    4.8600    4.8700
    4.8800    4.8900    4.9000    4.9100    4.9200    4.9300    4.9400    4.9500
    4.9600    4.9700    4.9800    4.9900    5.0000    5.0100    5.0200    5.0300
    5.0400    5.0500    5.0600    5.0700    5.0800    5.0900    5.1000    5.1100
    5.1200    5.1300    5.1400    5.1500    5.1600    5.1700    5.1800    5.1900
    5.2000    5.2100    5.2200    5.2300    5.2400    5.2500    5.2600    5.2700
    5.2800    5.2900    5.3000    5.3100    5.3200    5.3300    5.3400    5.3500
    5.3600    5.3700    5.3800    5.3900    5.4000    5.4100    5.4200    5.4300
    5.4400    5.4500    5.4600    5.4700    5.4800    5.4900    5.5000    5.5100
    5.5200    5.5300    5.5400    5.5500    5.5600    5.5700    5.5800    5.5900
    5.6000    5.6100    5.6200    5.6300    5.6400    5.6500    5.6600    5.6700
    5.6800    5.6900    5.7000    5.7100    5.7200    5.7300    5.7400    5.7500
    5.7600    5.7700    5.7800    5.7900    5.8000    5.8100    5.8200    5.8300
    5.8400    5.8500    5.8600    5.8700    5.8800    5.8900    5.9000    5.9100
    5.9200    5.9300    5.9400    5.9500    5.9600    5.9700    5.9800    5.9900
    6.0000    6.0100    6.0200    6.0300    6.0400    6.0500    6.0600    6.0700
    6.0800    6.0900    6.1000    6.1100    6.1200    6.1300    6.1400    6.1500
    6.1600    6.1700    6.1800    6.1900    6.2000    6.2100    6.2200    6.2300
    6.2400    6.2500    6.2600    6.2700    6.2800    6.2900    6.3000    6.3100
    6.3200    6.3300    6.3400    6.3500    6.3600    6.3700    6.3800    6.3900
    6.4000    6.4100    6.4200    6.4300    6.4400    6.4500    6.4600    6.4700
    6.4800    6.4900    6.5000    6.5100    6.5200    6.5300    6.5400    6.5500
    6.5600    6.5700    6.5800    6.5900    6.6000    6.6100    6.6200    6.6300
    6.6400    6.6500    6.6600    6.6700    6.6800    6.6900    6.7000    6.7100
    6.7200    6.7300    6.7400    6.7500    6.7600    6.7700    6.7800    6.7900
    6.8000    6.8100    6.8200    6.8300    6.8400    6.8500    6.8600    6.8700
    6.8800    6.8900    6.9000    6.9100    6.9200    6.9300    6.9400    6.9500
    6.9600    6.9700    6.9800    6.9900    7.0000    7.0100    7.0200    7.0300
    7.0400    7.0500    7.0600    7.0700    7.0800    7.0900    7.1000    7.1100
    7.1200    7.1300    7.1400    7.1500    7.1600    7.1700    7.1800    7.1900
    7.2000    7.2100    7.2200    7.2300    7.2400    7.2500    7.2600    7.2700
    7.2800    7.2900    7.3000    7.3100    7.3200    7.3300    7.3400    7.3500
    7.3600    7.3700    7.3800    7.3900    7.4000    7.4100    7.4200    7.4300
    7.4400    7.4500    7.4600    7.4700    7.4800    7.4900    7.5000    7.5100
    7.5200    7.5300    7.5400    7.5500    7.5600    7.5700    7.5800    7.5900
    7.6000    7.6100    7.6200    7.6300    7.6400    7.6500    7.6600    7.6700
    7.6800    7.6900    7.7000    7.7100    7.7200    7.7300    7.7400    7.7500
    7.7600    7.7700    7.7800    7.7900    7.8000    7.8100    7.8200    7.8300
    7.8400    7.8500    7.8600    7.8700    7.8800    7.8900    7.9000    7.9100
    7.9200    7.9300    7.9400    7.9500    7.9600    7.9700    7.9800    7.9900
    8.0000    8.0100    8.0200    8.0300    8.0400    8.0500    8.0600    8.0700
    8.0800    8.0900    8.1000    8.1100    8.1200    8.1300    8.1400    8.1500
    8.1600    8.1700    8.1800    8.1900    8.2000    8.2100    8.2200    8.2300
    8.2400    8.2500    8.2600    8.2700    8.2800    8.2900    8.3000    8.3100
    8.3200    8.3300    8.3400    8.3500    8.3600    8.3700    8.3800    8.3900
    8.4000    8.4100    8.4200    8.4300    8.4400    8.4500    8.4600    8.4700
    8.4800    8.4900    8.5000    8.5100    8.5200    8.5300    8.5400    8.5500
    8.5600    8.5700    8.5800    8.5900    8.6000    8.6100    8.6200    8.6300
    8.6400    8.6500    8.6600    8.6700    8.6800    8.6900    8.7000    8.7100
    8.7200    8.7300    8.7400    8.7500    8.7600    8.7700    8.7800    8.7900
    8.8000    8.8100    8.8200    8.8300    8.8400    8.8500    8.8600    8.8700
    8.8800    8.8900    8.9000    8.9100    8.9200    8.9300    8.9400    8.9500
    8.9600    8.9700    8.9800    8.9900    9.0000    9.0100    9.0200    9.0300
    9.0400    9.0500    9.0600    9.0700    9.0800    9.0900    9.1000    9.1100
    9.1200    9.1300    9.1400    9.1500    9.1600    9.1700    9.1800    9.1900
    9.2000    9.2100    9.2200    9.2300    9.2400    9.2500
   </PP_R>
   <PP_RAB type="real"  size=" 926" columns="8">
    0.0100    0.0100    0.0100    0.0100    0.0100    0.0100    0.0100    0.0100
    0.0100    0.0100    0.0100    0.0100    0.0100    0.0100    0.0100    0.0100
    0.0100    0.0100    0.0100    0.0100    0.0100    0.0100    0.0100    0.0100
    0.0100    0.0100    0.0100    0.0100    0.0100    0.0100    0.0100    0.0100
    0.0100    0.0100    0.0100    0.0100    0.0100    0.0100    0.0100    0.0100
    0.0100    0.0100    0.0100    0.0100    0.0100    0.0100    0.0100    0.0100
    0.0100    0.0100    0.0100    0.0100    0.0100    0.0100    0.0100    0.0100
    0.0100    0.0100    0.0100    0.0100    0.0100    0.0100    0.0100    0.0100
    0.0100    0.0100    0.0100    0.0100    0.0100    0.0100    0.0100    0.0100
    0.0100    0.0100    0.0100    0.0100    0.0100    0.0100    0.0100    0.0100
    0.0100    0.0100    0.0100    0.0100    0.0100    0.0100    0.0100    0.0100
    0.0100    0.0100    0.0100    0.0100    0.0100    0.0100    0.0100    0.0100
    0.0100    0.0100    0.0100    0.0100    0.0100    0.0100    0.0100    0.0100
    0.0100    0.0100    0.0100    0.0100    0.0100    0.0100    0.0100    0.0100
    0.0100    0.0100    0.0100    0.0100    0.0100    0.0100    0.0100    0.0100
    0.0100    0.0100    0.0100    0.0100    0.0100    0.0100    0.0100    0.0100
    0.0100    0.0100    0.0100    0.0100    0.0100    0.0100    0.0100    0.0100
    0.0100    0.0100    0.0100    0.0100    0.0100    0.0100    0.0100    0.0100
    0.0100    0.0100    0.0100    0.0100    0.0100    0.0100    0.0100    0.0100
    0.0100    0.0100    0.0100    0.0100    0.0100    0.0100    0.0100    0.0100
    0.0100    0.0100    0.0100    0.0100    0.0100    0.0100    0.0100    0.0100
    0.0100    0.0100    0.0100    0.0100    0.0100    0.0100    0.0100    0.0100
    0.0100    0.0100    0.0100    0.0100    0.0100    0.0100    0.0100    0.0100
    0.0100    0.0100    0.0100    0.0100    0.0100    0.0100    0.0100    0.0100
    0.0100    0.0100    0.0100    0.0100    0.0100    0.0100    0.0100    0.0100
    0.0100    0.0100    0.0100    0.0100    0.0100    0.0100    0.0100    0.0100
    0.0100    0.0100    0.0100    0.0100    0.0100    0.0100    0.0100    0.0100
    0.0100    0.0100    0.0100    0.0100    0.0100    0.0100    0.0100    0.0100
    0.0100    0.0100    0.0100    0.0100    0.0100    0.0100    0.0100    0.0100
    0.0100    0.0100    0.0100    0.0100    0.0100    0.0100    0.0100    0.0100
    0.0100    0.0100    0.0100    0.0100    0.0100    0.0100    0.0100    0.0100
    0.0100    0.0100    0.0100    0.0100    0.0100    0.0100    0.0100    0.0100
    0.0100    0.0100    0.0100    0.0100    0.0100    0.0100    0.0100    0.0100
    0.0100    0.0100    0.0100    0.0100    0.0100    0.0100    0.0100    0.0100
    0.0100    0.0100    0.0100    0.0100    0.0100    0.0100    0.0100    0.0100
    0.0100    0.0100    0.0100    0.0100    0.0100    0.0100    0.0100    0.0100
    0.0100    0.0100    0.0100    0.0100    0.0100    0.0100    0.0100    0.0100
    0.0100    0.0100    0.0100    0.0100    0.0100    0.0100    0.0100    0.0100
    0.0100    0.0100    0.0100    0.0100    0.0100    0.0100    0.0100    0.0100
    0.0100    0.0100    0.0100    0.0100    0.0100    0.0100    0.0100    0.0100
    0.0100    0.0100    0.0100    0.0100    0.0100    0.0100    0.0100    0.0100
    0.0100    0.0100    0.0100    0.0100    0.0100    0.0100    0.0100    0.0100
    0.0100    0.0100    0.0100    0.0100    0.0100    0.0100    0.0100    0.0100
    0.0100    0.0100    0.0100    0.0100    0.0100    0.0100    0.0100    0.0100
    0.0100    0.0100    0.0100    0.0100    0.0100    0.0100    0.0100    0.0100
    0.0100    0.0100    0.0100    0.0100    0.0100    0.0100    0.0100    0.0100
    0.0100    0.0100    0.0100    0.0100    0.0100    0.0100    0.0100    0.0100
    0.0100    0.0100    0.0100    0.0100    0.0100    0.0100    0.0100    0.0100
    0.0100    0.0100    0.0100    0.0100    0.0100    0.0100    0.0100    0.0100
    0.0100    0.0100    0.0100    0.0100    0.0100    0.0100    0.0100    0.0100
    0.0100    0.0100    0.0100    0.0100    0.0100    0.0100    0.0100    0.0100
    0.0100    0.0100    0.0100    0.0100    0.0100    0.0100    0.0100    0.0100
    0.0100    0.0100    0.0100    0.0100    0.0100    0.0100    0.0100    0.0100
    0.0100    0.0100    0.0100    0.0100    0.0100    0.0100    0.0100    0.0100
    0.0100    0.0100    0.0100    0.0100    0.0100    0.0100    0.0100    0.0100
    0.0100    0.0100    0.0100    0.0100    0.0100    0.0100    0.0100    0.0100
    0.0100    0.0100    0.0100    0.0100    0.0100    0.0100    0.0100    0.0100
    0.0100    0.0100    0.0100    0.0100    0.0100    0.0100    0.0100    0.0100
    0.0100    0.0100    0.0100    0.0100    0.0100    0.0100    0.0100    0.0100
    0.0100    0.0100    0.0100    0.0100    0.0100    0.0100    0.0100    0.0100
    0.0100    0.0100    0.0100    0.0100    0.0100    0.0100    0.0100    0.0100
    0.0100    0.0100    0.0100    0.0100    0.0100    0.0100    0.0100    0.0100
    0.0100    0.0100    0.0100    0.0100    0.0100    0.0100    0.0100    0.0100
    0.0100    0.0100    0.0100    0.0100    0.0100    0.0100    0.0100    0.0100
    0.0100    0.0100    0.0100    0.0100    0.0100    0.0100    0.0100    0.0100
    0.0100    0.0100    0.0100    0.0100    0.0100    0.0100    0.0100    0.0100
    0.0100    0.0100    0.0100    0.0100    0.0100    0.0100    0.0100    0.0100
    0.0100    0.0100    0.0100    0.0100    0.0100    0.0100    0.0100    0.0100
    0.0100    0.0100    0.0100    0.0100    0.0100    0.0100    0.0100    0.0100
    0.0100    0.0100    0.0100    0.0100    0.0100    0.0100    0.0100    0.0100
    0.0100    0.0100    0.0100    0.0100    0.0100    0.0100    0.0100    0.0100
    0.0100    0.0100    0.0100    0.0100    0.0100    0.0100    0.0100    0.0100
    0.0100    0.0100    0.0100    0.0100    0.0100    0.0100    0.0100    0.0100
    0.0100    0.0100    0.0100    0.0100    0.0100    0.0100    0.0100    0.0100
    0.0100    0.0100    0.0100    0.0100    0.0100    0.0100    0.0100    0.0100
    0.0100    0.0100    0.0100    0.0100    0.0100    0.0100    0.0100    0.0100
    0.0100    0.0100    0.0100    0.0100    0.0100    0.0100    0.0100    0.0100
    0.0100    0.0100    0.0100    0.0100    0.0100    0.0100    0.0100    0.0100
    0.0100    0.0100    0.0100    0.0100    0.0100    0.0100    0.0100    0.0100
    0.0100    0.0100    0.0100    0.0100    0.0100    0.0100    0.0100    0.0100
    0.0100    0.0100    0.0100    0.0100    0.0100    0.0100    0.0100    0.0100
    0.0100    0.0100    0.0100    0.0100    0.0100    0.0100    0.0100    0.0100
    0.0100    0.0100    0.0100    0.0100    0.0100    0.0100    0.0100    0.0100
    0.0100    0.0100    0.0100    0.0100    0.0100    0.0100    0.0100    0.0100
    0.0100    0.0100    0.0100    0.0100    0.0100    0.0100    0.0100    0.0100
    0.0100    0.0100    0.0100    0.0100    0.0100    0.0100    0.0100    0.0100
    0.0100    0.0100    0.0100    0.0100    0.0100    0.0100    0.0100    0.0100
    0.0100    0.0100    0.0100    0.0100    0.0100    0.0100    0.0100    0.0100
    0.0100    0.0100    0.0100    0.0100    0.0100    0.0100    0.0100    0.0100
    0.0100    0.0100    0.0100    0.0100    0.0100    0.0100    0.0100    0.0100
    0.0100    0.0100    0.0100    0.0100    0.0100    0.0100    0.0100    0.0100
    0.0100    0.0100    0.0100    0.0100    0.0100    0.0100    0.0100    0.0100
    0.0100    0.0100    0.0100    0.0100    0.0100    0.0100    0.0100    0.0100
    0.0100    0.0100    0.0100    0.0100    0.0100    0.0100    0.0100    0.0100
    0.0100    0.0100    0.0100    0.0100    0.0100    0.0100    0.0100    0.0100
    0.0100    0.0100    0.0100    0.0100    0.0100    0.0100    0.0100    0.0100
    0.0100    0.0100    0.0100    0.0100    0.0100    0.0100    0.0100    0.0100
    0.0100    0.0100    0.0100    0.0100    0.0100    0.0100    0.0100    0.0100
    0.0100    0.0100    0.0100    0.0100    0.0100    0.0100    0.0100    0.0100
    0.0100    0.0100    0.0100    0.0100    0.0100    0.0100    0.0100    0.0100
    0.0100    0.0100    0.0100    0.0100    0.0100    0.0100    0.0100    0.0100
    0.0100    0.0100    0.0100    0.0100    0.0100    0.0100    0.0100    0.0100
    0.0100    0.0100    0.0100    0.0100    0.0100    0.0100    0.0100    0.0100
    0.0100    0.0100    0.0100    0.0100    0.0100    0.0100    0.0100    0.0100
    0.0100    0.0100    0.0100    0.0100    0.0100    0.0100    0.0100    0.0100
    0.0100    0.0100    0.0100    0.0100    0.0100    0.0100    0.0100    0.0100
    0.0100    0.0100    0.0100    0.0100    0.0100    0.0100    0.0100    0.0100
    0.0100    0.0100    0.0100    0.0100    0.0100    0.0100    0.0100    0.0100
    0.0100    0.0100    0.0100    0.0100    0.0100    0.0100    0.0100    0.0100
    0.0100    0.0100    0.0100    0.0100    0.0100    0.0100    0.0100    0.0100
    0.0100    0.0100    0.0100    0.0100    0.0100    0.0100    0.0100    0.0100
    0.0100    0.0100    0.0100    0.0100    0.0100    0.0100    0.0100    0.0100
    0.0100    0.0100    0.0100    0.0100    0.0100    0.0100    0.0100    0.0100
    0.0100    0.0100    0.0100    0.0100    0.0100    0.0100    0.0100    0.0100
    0.0100    0.0100    0.0100    0.0100    0.0100    0.0100    0.0100    0.0100
    0.0100    0.0100    0.0100    0.0100    0.0100    0.0100
   </PP_RAB>
 </PP_MESH>
  <PP_LOCAL type="real"  size=" 926" columns="4">
   -2.1419115785E+01   -2.1418546385E+01   -2.1416838054E+01   -2.1413990422E+01
   -2.1410002870E+01   -2.1404874529E+01   -2.1398604284E+01   -2.1391190771E+01
   -2.1382632377E+01   -2.1372927240E+01   -2.1362073250E+01   -2.1350068048E+01
   -2.1336909028E+01   -2.1322593333E+01   -2.1307117860E+01   -2.1290479261E+01
   -2.1272673939E+01   -2.1253698056E+01   -2.1233547532E+01   -2.1212218047E+01
   -2.1189705045E+01   -2.1166003738E+01   -2.1141109112E+01   -2.1115015929E+01
   -2.1087718736E+01   -2.1059211869E+01   -2.1029489468E+01   -2.0998545477E+01
   -2.0966373662E+01   -2.0932967619E+01   -2.0898320788E+01   -2.0862426469E+01
   -2.0825277833E+01   -2.0786867946E+01   -2.0747189785E+01   -2.0706236259E+01
   -2.0664000232E+01   -2.0620474548E+01   -2.0575652059E+01   -2.0529525649E+01
   -2.0482088273E+01   -2.0433332982E+01   -2.0383252965E+01   -2.0331841581E+01
   -2.0279092405E+01   -2.0224999265E+01   -2.0169556293E+01   -2.0112757966E+01
   -2.0054599162E+01   -1.9995075208E+01   -1.9934181939E+01   -1.9871915751E+01
   -1.9808273664E+01   -1.9743253382E+01   -1.9676853355E+01   -1.9609072848E+01
   -1.9539912004E+01   -1.9469371914E+01   -1.9397454683E+01   -1.9324163502E+01
   -1.9249502715E+01   -1.9173477885E+01   -1.9096095866E+01   -1.9017364863E+01
   -1.8937294499E+01   -1.8855895869E+01   -1.8773181603E+01   -1.8689165909E+01
   -1.8603864625E+01   -1.8517295257E+01   -1.8429477009E+01   -1.8340430814E+01
   -1.8250179348E+01   -1.8158747043E+01   -1.8066160083E+01   -1.7972446398E+01
   -1.7877635648E+01   -1.7781759192E+01   -1.7684850054E+01   -1.7586942875E+01
   -1.7488073858E+01   -1.7388280707E+01   -1.7287602550E+01   -1.7186079865E+01
   -1.7083754390E+01   -1.6980669034E+01   -1.6876867778E+01   -1.6772395573E+01
   -1.6667298239E+01   -1.6561622354E+01   -1.6455415146E+01   -1.6348724386E+01
   -1.6241598280E+01   -1.6134085355E+01   -1.6026234360E+01   -1.5918094158E+01
   -1.5809713628E+01   -1.5701141562E+01   -1.5592426577E+01   -1.5483617024E+01
   -1.5374760900E+01   -1.5265905768E+01   -1.5157098681E+01   -1.5048386112E+01
   -1.4939813883E+01   -1.4831427102E+01   -1.4723270109E+01   -1.4615386416E+01
   -1.4507818660E+01   -1.4400608555E+01   -1.4293796849E+01   -1.4187423284E+01
   -1.4081526561E+01   -1.3976144304E+01   -1.3871313028E+01   -1.3767068114E+01
   -1.3663443781E+01   -1.3560473060E+01   -1.3458187773E+01   -1.3356618509E+01
   -1.3255794610E+01   -1.3155744145E+01   -1.3056493902E+01   -1.2958069361E+01
   -1.2860494686E+01   -1.2763792708E+01   -1.2667984911E+01   -1.2573091417E+01
   -1.2479130971E+01   -1.2386120935E+01   -1.2294077265E+01   -1.2203014587E+01
   -1.2112945918E+01   -1.2023881132E+01   -1.1935836497E+01   -1.1848821293E+01
   -1.1762800790E+01   -1.1677785148E+01   -1.1593834897E+01   -1.1510947076E+01
   -1.1429099553E+01   -1.1348296639E+01   -1.1268539042E+01   -1.1189822162E+01
   -1.1112140982E+01   -1.1035488906E+01   -1.0959857674E+01   -1.0885237384E+01
   -1.0811616461E+01   -1.0738981689E+01   -1.0667318162E+01   -1.0596609019E+01
   -1.0526836165E+01   -1.0457980963E+01   -1.0390024944E+01   -1.0322950374E+01
   -1.0256739987E+01   -1.0191376958E+01   -1.0126844933E+01   -1.0063127983E+01
   -1.0000210578E+01   -9.9380775672E+00   -9.8767141725E+00   -9.8161059801E+00
   -9.7562389409E+00   -9.6970993565E+00   -9.6386738659E+00   -9.5809494387E+00
   -9.5239133672E+00   -9.4675532572E+00   -9.4118570192E+00   -9.3568128597E+00
   -9.3024092732E+00   -9.2486350339E+00   -9.1954791871E+00   -9.1429310419E+00
   -9.0909801627E+00   -9.0396163619E+00   -8.9888296922E+00   -8.9386104394E+00
   -8.8889491149E+00   -8.8398364492E+00   -8.7912633845E+00   -8.7432210686E+00
   -8.6957008479E+00   -8.6486942620E+00   -8.6021930369E+00   -8.5561890797E+00
   -8.5106744726E+00   -8.4656414679E+00   -8.4210824828E+00   -8.3769900941E+00
   -8.3333570336E+00   -8.2901761838E+00   -8.2474405730E+00   -8.2051433717E+00
   -8.1632778882E+00   -8.1218375648E+00   -8.0808159746E+00   -8.0402068173E+00
   -8.0000039166E+00   -7.9602012167E+00   -7.9207927791E+00   -7.8817727801E+00
   -7.8431355079E+00   -7.8048753599E+00   -7.7669868400E+00   -7.7294645565E+00
   -7.6923032198E+00   -7.6554976397E+00   -7.6190427237E+00   -7.5829334746E+00
   -7.5471649888E+00   -7.5117324538E+00   -7.4766311469E+00   -7.4418564329E+00
   -7.4074037624E+00   -7.3732686701E+00   -7.3394467731E+00   -7.3059337688E+00
   -7.2727254337E+00   -7.2398176215E+00   -7.2072062615E+00   -7.1748873571E+00
   -7.1428569839E+00   -7.1111112886E+00   -7.0796464872E+00   -7.0484588634E+00
   -7.0175447673E+00   -6.9869006137E+00   -6.9565228811E+00   -6.9264081097E+00
   -6.8965529004E+00   -6.8669539133E+00   -6.8376078662E+00   -6.8085115337E+00
   -6.7796617452E+00   -6.7510553846E+00   -6.7226893880E+00   -6.6945607435E+00
   -6.6666664891E+00   -6.6390037124E+00   -6.6115695487E+00   -6.5843611808E+00
   -6.5573758370E+00   -6.5306107909E+00   -6.5040633599E+00   -6.4777309046E+00
   -6.4516108276E+00   -6.4257005728E+00   -6.3999976246E+00   -6.3744995068E+00
   -6.3492037821E+00   -6.3241080512E+00   -6.2992099522E+00   -6.2745071595E+00
   -6.2499973838E+00   -6.2256783705E+00   -6.2015479000E+00   -6.1776037865E+00
   -6.1538438776E+00   -6.1302660535E+00   -6.1068682267E+00   -6.0836483413E+00
   -6.0606043725E+00   -6.0377343259E+00   -6.0150362373E+00   -5.9925081718E+00
   -5.9701482237E+00   -5.9479545156E+00   -5.9259251981E+00   -5.9040584494E+00
   -5.8823524746E+00   -5.8608055056E+00   -5.8394158003E+00   -5.8181816428E+00
   -5.7971013403E+00   -5.7761732255E+00   -5.7553956553E+00   -5.7347670138E+00
   -5.7142857095E+00   -5.6939501738E+00   -5.6737588595E+00   -5.6537102389E+00
   -5.6338028059E+00   -5.6140350745E+00   -5.5944055796E+00   -5.5749128762E+00
   -5.5555555388E+00   -5.5363321621E+00   -5.5172413603E+00   -5.4982817668E+00
   -5.4794520338E+00   -5.4607508314E+00   -5.4421768481E+00   -5.4237287903E+00
   -5.4054053815E+00   -5.3872053627E+00   -5.3691274918E+00   -5.3511705431E+00
   -5.3333333074E+00   -5.3156145916E+00   -5.2980132184E+00   -5.2805280259E+00
   -5.2631578675E+00   -5.2459016119E+00   -5.2287581423E+00   -5.2117263565E+00
   -5.1948051668E+00   -5.1779934993E+00   -5.1612902943E+00   -5.1446945054E+00
   -5.1282050997E+00   -5.1118210577E+00   -5.0955413727E+00   -5.0793650507E+00
   -5.0632911106E+00   -5.0473185833E+00   -5.0314465122E+00   -5.0156739525E+00
   -4.9999999713E+00   -4.9844236474E+00   -4.9689440708E+00   -4.9535603429E+00
   -4.9382715764E+00   -4.9230768946E+00   -4.9079754317E+00   -4.8929663325E+00
   -4.8780487522E+00   -4.8632218563E+00   -4.8484848203E+00   -4.8338368299E+00
   -4.8192770804E+00   -4.8048047769E+00   -4.7904191338E+00   -4.7761193752E+00
   -4.7619047343E+00   -4.7477744532E+00   -4.7337277832E+00   -4.7197639844E+00
   -4.7058823257E+00   -4.6920820843E+00   -4.6783625460E+00   -4.6647230051E+00
   -4.6511627638E+00   -4.6376811326E+00   -4.6242774300E+00   -4.6109509821E+00
   -4.5977011229E+00   -4.5845271942E+00   -4.5714285451E+00   -4.5584045322E+00
   -4.5454545194E+00   -4.5325778777E+00   -4.5197739854E+00   -4.5070422277E+00
   -4.4943819968E+00   -4.4817926915E+00   -4.4692737175E+00   -4.4568244872E+00
   -4.4444444192E+00   -4.4321329388E+00   -4.4198894777E+00   -4.4077134737E+00
   -4.3956043707E+00   -4.3835616191E+00   -4.3715846748E+00   -4.3596729999E+00
   -4.3478260625E+00   -4.3360433360E+00   -4.3243243000E+00   -4.3126684394E+00
   -4.3010752447E+00   -4.2895442119E+00   -4.2780748424E+00   -4.2666666429E+00
   -4.2553191252E+00   -4.2440318066E+00   -4.2328042093E+00   -4.2216358605E+00
   -4.2105262924E+00   -4.1994750424E+00   -4.1884816522E+00   -4.1775456688E+00
   -4.1666666437E+00   -4.1558441329E+00   -4.1450776974E+00   -4.1343669023E+00
   -4.1237113176E+00   -4.1131105173E+00   -4.1025640801E+00   -4.0920715889E+00
   -4.0816326308E+00   -4.0712467971E+00   -4.0609136835E+00   -4.0506328893E+00
   -4.0404040184E+00   -4.0302266784E+00   -4.0201004807E+00   -4.0100250409E+00
   -3.9999999784E+00   -3.9900249161E+00   -3.9800994810E+00   -3.9702233037E+00
   -3.9603960183E+00   -3.9506172627E+00   -3.9408866784E+00   -3.9312039101E+00
   -3.9215686065E+00   -3.9119804192E+00   -3.9024390036E+00   -3.8929440182E+00
   -3.8834951250E+00   -3.8740919891E+00   -3.8647342790E+00   -3.8554216663E+00
   -3.8461538258E+00   -3.8369304353E+00   -3.8277511760E+00   -3.8186157316E+00
   -3.8095237895E+00   -3.8004750394E+00   -3.7914691744E+00   -3.7825058903E+00
   -3.7735848859E+00   -3.7647058626E+00   -3.7558685250E+00   -3.7470725800E+00
   -3.7383177375E+00   -3.7296037102E+00   -3.7209302132E+00   -3.7122969645E+00