<UPF version="2.0.1">
  <PP_INFO>

 This pseudopotential file has been produced using the code
 ONCVPSP  (Optimized Norm-Conservinng Vanderbilt PSeudopotential)
 scalar-relativistic version 3.3.1 12/12/2017 by D. R. Hamann
 The code is available through a link at URL www.mat-simresearch.com.
 Documentation with the package provides a full discription of the
 input data below.


 While it is not required under the terms of the GNU GPL, it is
 suggested that you cite D. R. Hamann, Phys. Rev. B 88, 085117 (2013)
 in any publication using these pseudopotentials.

    <PP_INPUTFILE>
# ATOM AND REFERENCE CONFIGURATION
# atsym  z   nc   nv     iexc    psfile
  He  2.00    0    1       3      upf
#
#   n    l    f        energy (Ha)
    1    0    2.00
#
# PSEUDOPOTENTIAL AND OPTIMIZATION
# lmax
    1
#
#   l,   rc,      ep,       ncon, nbas, qcut
    0   1.25000  -0.57021    4    8   9.40000
    1   1.13000   0.05000    4    7   9.40000
#
# LOCAL POTENTIAL
# lloc, lpopt,  rc(5),   dvloc0
    4    5   1.00000      0.00000
#
# VANDERBILT-KLEINMAN-BYLANDER PROJECTORs
# l, nproj, debl
    0    2   1.00000
    1    1   1.00000
#
# MODEL CORE CHARGE
# icmod, fcfact, rcfact
    0   0.00000   0.00000
#
# LOG DERIVATIVE ANALYSIS
# epsh1, epsh2, depsh
  -12.00   12.00    0.02
#
# OUTPUT GRID
# rlmax, drl
    6.00    0.01
#
# TEST CONFIGURATIONS
# ncnf
    0
# nvcnf
#   n    l    f
    </PP_INPUTFILE>
  </PP_INFO>
  <!--                               -->
  <!-- END OF HUMAN READABLE SECTION -->
  <!--                               -->
    <PP_HEADER
       generated="Generated using ONCVPSP code by D. R. Hamann"
       author="anonymous"
       date="220413"
       comment=""
       element="He"
       pseudo_type="NC"
       relativistic="scalar"
       is_ultrasoft="F"
       is_paw="F"
       is_coulomb="F"
       has_so="F"
       has_wfc="F"
       has_gipaw="F"
       core_correction="F"
       functional="PZ"
       z_valence="    2.00"
       total_psenergy="  -5.60795537080E+00"
       rho_cutoff="   7.31000000000E+00"
       l_max="1"
       l_local="-1"
       mesh_size="   732"
       number_of_wfc="1"
       number_of_proj="3"/>
 <PP_MESH>
   <PP_R type="real"  size=" 732" columns="8">
    0.0000    0.0100    0.0200    0.0300    0.0400    0.0500    0.0600    0.0700
    0.0800    0.0900    0.1000    0.1100    0.1200    0.1300    0.1400    0.1500
    0.1600    0.1700    0.1800    0.1900    0.2000    0.2100    0.2200    0.2300
    0.2400    0.2500    0.2600    0.2700    0.2800    0.2900    0.3000    0.3100
    0.3200    0.3300    0.3400    0.3500    0.3600    0.3700    0.3800    0.3900
    0.4000    0.4100    0.4200    0.4300    0.4400    0.4500    0.4600    0.4700
    0.4800    0.4900    0.5000    0.5100    0.5200    0.5300    0.5400    0.5500
    0.5600    0.5700    0.5800    0.5900    0.6000    0.6100    0.6200    0.6300
    0.6400    0.6500    0.6600    0.6700    0.6800    0.6900    0.7000    0.7100
    0.7200    0.7300    0.7400    0.7500    0.7600    0.7700    0.7800    0.7900
    0.8000    0.8100    0.8200    0.8300    0.8400    0.8500    0.8600    0.8700
    0.8800    0.8900    0.9000    0.9100    0.9200    0.9300    0.9400    0.9500
    0.9600    0.9700    0.9800    0.9900    1.0000    1.0100    1.0200    1.0300
    1.0400    1.0500    1.0600    1.0700    1.0800    1.0900    1.1000    1.1100
    1.1200    1.1300    1.1400    1.1500    1.1600    1.1700    1.1800    1.1900
    1.2000    1.2100    1.2200    1.2300    1.2400    1.2500    1.2600    1.2700
    1.2800    1.2900    1.3000    1.3100    1.3200    1.3300    1.3400    1.3500
    1.3600    1.3700    1.3800    1.3900    1.4000    1.4100    1.4200    1.4300
    1.4400    1.4500    1.4600    1.4700    1.4800    1.4900    1.5000    1.5100
    1.5200    1.5300    1.5400    1.5500    1.5600    1.5700    1.5800    1.5900
    1.6000    1.6100    1.6200    1.6300    1.6400    1.6500    1.6600    1.6700
    1.6800    1.6900    1.7000    1.7100    1.7200    1.7300    1.7400    1.7500
    1.7600    1.7700    1.7800    1.7900    1.8000    1.8100    1.8200    1.8300
    1.8400    1.8500    1.8600    1.8700    1.8800    1.8900    1.9000    1.9100
    1.9200    1.9300    1.9400    1.9500    1.9600    1.9700    1.9800    1.9900
    2.0000    2.0100    2.0200    2.0300    2.0400    2.0500    2.0600    2.0700
    2.0800    2.0900    2.1000    2.1100    2.1200    2.1300    2.1400    2.1500
    2.1600    2.1700    2.1800    2.1900    2.2000    2.2100    2.2200    2.2300
    2.2400    2.2500    2.2600    2.2700    2.2800    2.2900    2.3000    2.3100
    2.3200    2.3300    2.3400    2.3500    2.3600    2.3700    2.3800    2.3900
    2.4000    2.4100    2.4200    2.4300    2.4400    2.4500    2.4600    2.4700
    2.4800    2.4900    2.5000    2.5100    2.5200    2.5300    2.5400    2.5500
    2.5600    2.5700    2.5800    2.5900    2.6000    2.6100    2.6200    2.6300
    2.6400    2.6500    2.6600    2.6700    2.6800    2.6900    2.7000    2.7100
    2.7200    2.7300    2.7400    2.7500    2.7600    2.7700    2.7800    2.7900
    2.8000    2.8100    2.8200    2.8300    2.8400    2.8500    2.8600    2.8700
    2.8800    2.8900    2.9000    2.9100    2.9200    2.9300    2.9400    2.9500
    2.9600    2.9700    2.9800    2.9900    3.0000    3.0100    3.0200    3.0300
    3.0400    3.0500    3.0600    3.0700    3.0800    3.0900    3.1000    3.1100
    3.1200    3.1300    3.1400    3.1500    3.1600    3.1700    3.1800    3.1900
    3.2000    3.2100    3.2200    3.2300    3.2400    3.2500    3.2600    3.2700
    3.2800    3.2900    3.3000    3.3100    3.3200    3.3300    3.3400    3.3500
    3.3600    3.3700    3.3800    3.3900    3.4000    3.4100    3.4200    3.4300
    3.4400    3.4500    3.4600    3.4700    3.4800    3.4900    3.5000    3.5100
    3.5200    3.5300    3.5400    3.5500    3.5600    3.5700    3.5800    3.5900
    3.6000    3.6100    3.6200    3.6300    3.6400    3.6500    3.6600    3.6700
    3.6800    3.6900    3.7000    3.7100    3.7200    3.7300    3.7400    3.7500
    3.7600    3.7700    3.7800    3.7900    3.8000    3.8100    3.8200    3.8300
    3.8400    3.8500    3.8600    3.8700    3.8800    3.8900    3.9000    3.9100
    3.9200    3.9300    3.9400    3.9500    3.9600    3.9700    3.9800    3.9900
    4.0000    4.0100    4.0200    4.0300    4.0400    4.0500    4.0600    4.0700
    4.0800    4.0900    4.1000    4.1100    4.1200    4.1300    4.1400    4.1500
    4.1600    4.1700    4.1800    4.1900    4.2000    4.2100    4.2200    4.2300
    4.2400    4.2500    4.2600    4.2700    4.2800    4.2900    4.3000    4.3100
    4.3200    4.3300    4.3400    4.3500    4.3600    4.3700    4.3800    4.3900
    4.4000    4.4100    4.4200    4.4300    4.4400    4.4500    4.4600    4.4700
    4.4800    4.4900    4.5000    4.5100    4.5200    4.5300    4.5400    4.5500
    4.5600    4.5700    4.5800    4.5900    4.6000    4.6100    4.6200    4.6300
    4.6400    4.6500    4.6600    4.6700    4.6800    4.6900    4.7000    4.7100
    4.7200    4.7300    4.7400    4.7500    4.7600    4.7700    4.7800    4.7900
    4.8000    4.8100    4.8200    4.8300    4.8400    4.8500    4.8600    4.8700
    4.8800    4.8900    4.9000    4.9100    4.9200    4.9300    4.9400    4.9500
    4.9600    4.9700    4.9800    4.9900    5.0000    5.0100    5.0200    5.0300
    5.0400    5.0500    5.0600    5.0700    5.0800    5.0900    5.1000    5.1100
    5.1200    5.1300    5.1400    5.1500    5.1600    5.1700    5.1800    5.1900
    5.2000    5.2100    5.2200    5.2300    5.2400    5.2500    5.2600    5.2700
    5.2800    5.2900    5.3000    5.3100    5.3200    5.3300    5.3400    5.3500
    5.3600    5.3700    5.3800    5.3900    5.4000    5.4100    5.4200    5.4300
    5.4400    5.4500    5.4600    5.4700    5.4800    5.4900    5.5000    5.5100
    5.5200    5.5300    5.5400    5.5500    5.5600    5.5700    5.5800    5.5900
    5.6000    5.6100    5.6200    5.6300    5.6400    5.6500    5.6600    5.6700
    5.6800    5.6900    5.7000    5.7100    5.7200    5.7300    5.7400    5.7500
    5.7600    5.7700    5.7800    5.7900    5.8000    5.8100    5.8200    5.8300
    5.8400    5.8500    5.8600    5.8700    5.8800    5.8900    5.9000    5.9100
    5.9200    5.9300    5.9400    5.9500    5.9600    5.9700    5.9800    5.9900
    6.0000    6.0100    6.0200    6.0300    6.0400    6.0500    6.0600    6.0700
    6.0800    6.0900    6.1000    6.1100    6.1200    6.1300    6.1400    6.1500
    6.1600    6.1700    6.1800    6.1900    6.2000    6.2100    6.2200    6.2300
    6.2400    6.2500    6.2600    6.2700    6.2800    6.2900    6.3000    6.3100
    6.3200    6.3300    6.3400    6.3500    6.3600    6.3700    6.3800    6.3900
    6.4000    6.4100    6.4200    6.4300    6.4400    6.4500    6.4600    6.4700
    6.4800    6.4900    6.5000    6.5100    6.5200    6.5300    6.5400    6.5500
    6.5600    6.5700    6.5800    6.5900    6.6000    6.6100    6.6200    6.6300
    6.6400    6.6500    6.6600    6.6700    6.6800    6.6900    6.7000    6.7100
    6.7200    6.7300    6.7400    6.7500    6.7600    6.7700    6.7800    6.7900
    6.8000    6.8100    6.8200    6.8300    6.8400    6.8500    6.8600    6.8700
    6.8800    6.8900    6.9000    6.9100    6.9200    6.9300    6.9400    6.9500
    6.9600    6.9700    6.9800    6.9900    7.0000    7.0100    7.0200    7.0300
    7.0400    7.0500    7.0600    7.0700    7.0800    7.0900    7.1000    7.1100
    7.1200    7.1300    7.1400    7.1500    7.1600    7.1700    7.1800    7.1900
    7.2000    7.2100    7.2200    7.2300    7.2400    7.2500    7.2600    7.2700
    7.2800    7.2900    7.3000    7.3100
   </PP_R>
   <PP_RAB type="real"  size=" 732" columns="8">
    0.0100    0.0100    0.0100    0.0100    0.0100    0.0100    0.0100    0.0100
    0.0100    0.0100    0.0100    0.0100    0.0100    0.0100    0.0100    0.0100
    0.0100    0.0100    0.0100    0.0100    0.0100    0.0100    0.0100    0.0100
    0.0100    0.0100    0.0100    0.0100    0.0100    0.0100    0.0100    0.0100
    0.0100    0.0100    0.0100    0.0100    0.0100    0.0100    0.0100    0.0100
    0.0100    0.0100    0.0100    0.0100    0.0100    0.0100    0.0100    0.0100
    0.0100    0.0100    0.0100    0.0100    0.0100    0.0100    0.0100    0.0100
    0.0100    0.0100    0.0100    0.0100    0.0100    0.0100    0.0100    0.0100
    0.0100    0.0100    0.0100    0.0100    0.0100    0.0100    0.0100    0.0100
    0.0100    0.0100    0.0100    0.0100    0.0100    0.0100    0.0100    0.0100
    0.0100    0.0100    0.0100    0.0100    0.0100    0.0100    0.0100    0.0100
    0.0100    0.0100    0.0100    0.0100    0.0100    0.0100    0.0100    0.0100
    0.0100    0.0100    0.0100    0.0100    0.0100    0.0100    0.0100    0.0100
    0.0100    0.0100    0.0100    0.0100    0.0100    0.0100    0.0100    0.0100
    0.0100    0.0100    0.0100    0.0100    0.0100    0.0100    0.0100    0.0100
    0.0100    0.0100    0.0100    0.0100    0.0100    0.0100    0.0100    0.0100
    0.0100    0.0100    0.0100    0.0100    0.0100    0.0100    0.0100    0.0100
    0.0100    0.0100    0.0100    0.0100    0.0100    0.0100    0.0100    0.0100
    0.0100    0.0100    0.0100    0.0100    0.0100    0.0100    0.0100    0.0100
    0.0100    0.0100    0.0100    0.0100    0.0100    0.0100    0.0100    0.0100
    0.0100    0.0100    0.0100    0.0100    0.0100    0.0100    0.0100    0.0100
    0.0100    0.0100    0.0100    0.0100    0.0100    0.0100    0.0100    0.0100
    0.0100    0.0100    0.0100    0.0100    0.0100    0.0100    0.0100    0.0100
    0.0100    0.0100    0.0100    0.0100    0.0100    0.0100    0.0100    0.0100
    0.0100    0.0100    0.0100    0.0100    0.0100    0.0100    0.0100    0.0100
    0.0100    0.0100    0.0100    0.0100    0.0100    0.0100    0.0100    0.0100
    0.0100    0.0100    0.0100    0.0100    0.0100    0.0100    0.0100    0.0100
    0.0100    0.0100    0.0100    0.0100    0.0100    0.0100    0.0100    0.0100
    0.0100    0.0100    0.0100    0.0100    0.0100    0.0100    0.0100    0.0100
    0.0100    0.0100    0.0100    0.0100    0.0100    0.0100    0.0100    0.0100
    0.0100    0.0100    0.0100    0.0100    0.0100    0.0100    0.0100    0.0100
    0.0100    0.0100    0.0100    0.0100    0.0100    0.0100    0.0100    0.0100
    0.0100    0.0100    0.0100    0.0100    0.0100    0.0100    0.0100    0.0100
    0.0100    0.0100    0.0100    0.0100    0.0100    0.0100    0.0100    0.0100
    0.0100    0.0100    0.0100    0.0100    0.0100    0.0100    0.0100    0.0100
    0.0100    0.0100    0.0100    0.0100    0.0100    0.0100    0.0100    0.0100
    0.0100    0.0100    0.0100    0.0100    0.0100    0.0100    0.0100    0.0100
    0.0100    0.0100    0.0100    0.0100    0.0100    0.0100    0.0100    0.0100
    0.0100    0.0100    0.0100    0.0100    0.0100    0.0100    0.0100    0.0100
    0.0100    0.0100    0.0100    0.0100    0.0100    0.0100    0.0100    0.0100
    0.0100    0.0100    0.0100    0.0100    0.0100    0.0100    0.0100    0.0100
    0.0100    0.0100    0.0100    0.0100    0.0100    0.0100    0.0100    0.0100
    0.0100    0.0100    0.0100    0.0100    0.0100    0.0100    0.0100    0.0100
    0.0100    0.0100    0.0100    0.0100    0.0100    0.0100    0.0100    0.0100
    0.0100    0.0100    0.0100    0.0100    0.0100    0.0100    0.0100    0.0100
    0.0100    0.0100    0.0100    0.0100    0.0100    0.0100    0.0100    0.0100
    0.0100    0.0100    0.0100    0.0100    0.0100    0.0100    0.0100    0.0100
    0.0100    0.0100    0.0100    0.0100    0.0100    0.0100    0.0100    0.0100
    0.0100    0.0100    0.0100    0.0100    0.0100    0.0100    0.0100    0.0100
    0.0100    0.0100    0.0100    0.0100    0.0100    0.0100    0.0100    0.0100
    0.0100    0.0100    0.0100    0.0100    0.0100    0.0100    0.0100    0.0100
    0.0100    0.0100    0.0100    0.0100    0.0100    0.0100    0.0100    0.0100
    0.0100    0.0100    0.0100    0.0100    0.0100    0.0100    0.0100    0.0100
    0.0100    0.0100    0.0100    0.0100    0.0100    0.0100    0.0100    0.0100
    0.0100    0.0100    0.0100    0.0100    0.0100    0.0100    0.0100    0.0100
    0.0100    0.0100    0.0100    0.0100    0.0100    0.0100    0.0100    0.0100
    0.0100    0.0100    0.0100    0.0100    0.0100    0.0100    0.0100    0.0100
    0.0100    0.0100    0.0100    0.0100    0.0100    0.0100    0.0100    0.0100
    0.0100    0.0100    0.0100    0.0100    0.0100    0.0100    0.0100    0.0100
    0.0100    0.0100    0.0100    0.0100    0.0100    0.0100    0.0100    0.0100
    0.0100    0.0100    0.0100    0.0100    0.0100    0.0100    0.0100    0.0100
    0.0100    0.0100    0.0100    0.0100    0.0100    0.0100    0.0100    0.0100
    0.0100    0.0100    0.0100    0.0100    0.0100    0.0100    0.0100    0.0100
    0.0100    0.0100    0.0100    0.0100    0.0100    0.0100    0.0100    0.0100
    0.0100    0.0100    0.0100    0.0100    0.0100    0.0100    0.0100    0.0100
    0.0100    0.0100    0.0100    0.0100    0.0100    0.0100    0.0100    0.0100
    0.0100    0.0100    0.0100    0.0100    0.0100    0.0100    0.0100    0.0100
    0.0100    0.0100    0.0100    0.0100    0.0100    0.0100    0.0100    0.0100
    0.0100    0.0100    0.0100    0.0100    0.0100    0.0100    0.0100    0.0100
    0.0100    0.0100    0.0100    0.0100    0.0100    0.0100    0.0100    0.0100
    0.0100    0.0100    0.0100    0.0100    0.0100    0.0100    0.0100    0.0100
    0.0100    0.0100    0.0100    0.0100    0.0100    0.0100    0.0100    0.0100
    0.0100    0.0100    0.0100    0.0100    0.0100    0.0100    0.0100    0.0100
    0.0100    0.0100    0.0100    0.0100    0.0100    0.0100    0.0100    0.0100
    0.0100    0.0100    0.0100    0.0100    0.0100    0.0100    0.0100    0.0100
    0.0100    0.0100    0.0100    0.0100    0.0100    0.0100    0.0100    0.0100
    0.0100    0.0100    0.0100    0.0100    0.0100    0.0100    0.0100    0.0100
    0.0100    0.0100    0.0100    0.0100    0.0100    0.0100    0.0100    0.0100
    0.0100    0.0100    0.0100    0.0100    0.0100    0.0100    0.0100    0.0100
    0.0100    0.0100    0.0100    0.0100    0.0100    0.0100    0.0100    0.0100
    0.0100    0.0100    0.0100    0.0100    0.0100    0.0100    0.0100    0.0100
    0.0100    0.0100    0.0100    0.0100    0.0100    0.0100    0.0100    0.0100
    0.0100    0.0100    0.0100    0.0100    0.0100    0.0100    0.0100    0.0100
    0.0100    0.0100    0.0100    0.0100    0.0100    0.0100    0.0100    0.0100
    0.0100    0.0100    0.0100    0.0100    0.0100    0.0100    0.0100    0.0100
    0.0100    0.0100    0.0100    0.0100    0.0100    0.0100    0.0100    0.0100
    0.0100    0.0100    0.0100    0.0100    0.0100    0.0100    0.0100    0.0100
    0.0100    0.0100    0.0100    0.0100    0.0100    0.0100    0.0100    0.0100
    0.0100    0.0100    0.0100    0.0100    0.0100    0.0100    0.0100    0.0100
    0.0100    0.0100    0.0100    0.0100    0.0100    0.0100    0.0100    0.0100
    0.0100    0.0100    0.0100    0.0100    0.0100    0.0100    0.0100    0.0100
    0.0100    0.0100    0.0100    0.0100
   </PP_RAB>
 </PP_MESH>
  <PP_LOCAL type="real"  size=" 732" columns="4">
   -8.7514445945E+00   -8.7504982604E+00   -8.7476601920E+00   -8.7429333206E+00
   -8.7363225123E+00   -8.7278345604E+00   -8.7174781701E+00   -8.7052639378E+00
   -8.6912043256E+00   -8.6753136309E+00   -8.6576079528E+00   -8.6381051539E+00
   -8.6168248182E+00   -8.5937882059E+00   -8.5690182049E+00   -8.5425392784E+00
   -8.5143774108E+00   -8.4845600502E+00   -8.4531160495E+00   -8.4200756044E+00
   -8.3854701912E+00   -8.3493325017E+00   -8.3116963782E+00   -8.2725967474E+00
   -8.2320695533E+00   -8.1901516907E+00   -8.1468809385E+00   -8.1022958927E+00
   -8.0564359011E+00   -8.0093409980E+00   -7.9610518399E+00   -7.9116096434E+00
   -7.8610561233E+00   -7.8094334329E+00   -7.7567841061E+00   -7.7031510014E+00
   -7.6485772472E+00   -7.5931061902E+00   -7.5367813446E+00   -7.4796463449E+00
   -7.4217448997E+00   -7.3631207479E+00   -7.3038176173E+00   -7.2438791854E+00
   -7.1833490415E+00   -7.1222706511E+00   -7.0606873226E+00   -6.9986421750E+00
   -6.9361781076E+00   -6.8733377712E+00   -6.8101635401E+00   -6.7466974861E+00
   -6.6829813531E+00   -6.6190565322E+00   -6.5549640381E+00   -6.4907444858E+00
   -6.4264380677E+00   -6.3620845306E+00   -6.2977231531E+00   -6.2333927229E+00
   -6.1691315136E+00   -6.1049772608E+00   -6.0409671387E+00   -5.9771377347E+00
   -5.9135250240E+00   -5.8501643431E+00   -5.7870903620E+00   -5.7243370557E+00
   -5.6619376742E+00   -5.5999247110E+00   -5.5383298707E+00   -5.4771840347E+00
   -5.4165173371E+00   -5.3563581888E+00   -5.2967331051E+00   -5.2375939257E+00
   -5.1790729929E+00   -5.1211653719E+00   -5.0638993157E+00   -5.0072969721E+00
   -4.9513800873E+00   -4.8961690953E+00   -4.8416831242E+00   -4.7879399430E+00
   -4.7349559065E+00   -4.6827458987E+00   -4.6313232746E+00   -4.5806998004E+00
   -4.5308855922E+00   -4.4818890528E+00   -4.4337168079E+00   -4.3863736394E+00
   -4.3398624187E+00   -4.2941840375E+00   -4.2493373380E+00   -4.2053190407E+00
   -4.1621236720E+00   -4.1197434897E+00   -4.0781684072E+00   -4.0373859154E+00
   -3.9973810356E+00   -3.9581361151E+00   -3.9196312845E+00   -3.8818460843E+00
   -3.8447609065E+00   -3.8083569948E+00   -3.7726163697E+00   -3.7375217905E+00
   -3.7030567101E+00   -3.6692052305E+00   -3.6359520606E+00   -3.6032824765E+00
   -3.5711822839E+00   -3.5396377817E+00   -3.5086357283E+00   -3.4781633092E+00
   -3.4482081068E+00   -3.4187580717E+00   -3.3898014962E+00   -3.3613269892E+00
   -3.3333234530E+00   -3.3057800620E+00   -3.2786862431E+00   -3.2520316577E+00
   -3.2258061855E+00   -3.1999999096E+00   -3.1746031042E+00   -3.1496062271E+00
   -3.1249999388E+00   -3.1007751390E+00   -3.0769230263E+00   -3.0534350689E+00
   -3.0303029896E+00   -3.0075187610E+00   -2.9850745955E+00   -2.9629629360E+00
   -2.9411764479E+00   -2.9197080106E+00   -2.8985507101E+00   -2.8776978311E+00
   -2.8571428502E+00   -2.8368794294E+00   -2.8169014088E+00   -2.7972028009E+00
   -2.7777777848E+00   -2.7586207000E+00   -2.7397260408E+00   -2.7210884519E+00
   -2.7027027222E+00   -2.6845637807E+00   -2.6666666918E+00   -2.6490066503E+00
   -2.6315789778E+00   -2.6143791180E+00   -2.5974026329E+00   -2.5806451992E+00
   -2.5641026044E+00   -2.5477707432E+00   -2.5316456144E+00   -2.5157233174E+00
   -2.5000000491E+00   -2.4844721008E+00   -2.4691358556E+00   -2.4539877851E+00
   -2.4390244472E+00   -2.4242424830E+00   -2.4096386148E+00   -2.3952096431E+00
   -2.3809524450E+00   -2.3668639710E+00   -2.3529412438E+00   -2.3391813554E+00
   -2.3255814657E+00   -2.3121388002E+00   -2.2988506481E+00   -2.2857143605E+00
   -2.2727273489E+00   -2.2598870832E+00   -2.2471910901E+00   -2.2346369516E+00
   -2.2222223036E+00   -2.2099448340E+00   -2.1978022816E+00   -2.1857924347E+00
   -2.1739131296E+00   -2.1621622493E+00   -2.1505377227E+00   -2.1390375225E+00
   -2.1276596648E+00   -2.1164022077E+00   -2.1052632502E+00   -2.0942409310E+00
   -2.0833334275E+00   -2.0725389552E+00   -2.0618557661E+00   -2.0512821481E+00
   -2.0408164242E+00   -2.0304569513E+00   -2.0202021195E+00   -2.0100503514E+00
   -2.0000001009E+00   -1.9900498528E+00   -1.9801981221E+00   -1.9704434528E+00
   -1.9607844174E+00   -1.9512196166E+00   -1.9417476779E+00   -1.9323672554E+00
   -1.9230770294E+00   -1.9138757050E+00   -1.9047620122E+00   -1.8957347052E+00
   -1.8867925614E+00   -1.8779343814E+00   -1.8691589882E+00   -1.8604652265E+00
   -1.8518519625E+00   -1.8433180835E+00   -1.8348624970E+00   -1.8264841304E+00
   -1.8181819307E+00   -1.8099548641E+00   -1.8018019152E+00   -1.7937220869E+00
   -1.7857143999E+00   -1.7777778923E+00   -1.7699116194E+00   -1.7621146527E+00
   -1.7543860805E+00   -1.7467250068E+00   -1.7391305511E+00   -1.7316018482E+00
   -1.7241380479E+00   -1.7167383146E+00   -1.7094018269E+00   -1.7021277773E+00
   -1.6949153722E+00   -1.6877638313E+00   -1.6806723874E+00   -1.6736402861E+00
   -1.6666667856E+00   -1.6597511565E+00   -1.6528926813E+00   -1.6460906545E+00
   -1.6393443820E+00   -1.6326531811E+00   -1.6260163802E+00   -1.6194333186E+00
   -1.6129033462E+00   -1.6064258233E+00   -1.6000001206E+00   -1.5936256188E+00
   -1.5873017082E+00   -1.5810277890E+00   -1.5748032707E+00   -1.5686275722E+00
   -1.5625001213E+00   -1.5564203548E+00   -1.5503877183E+00   -1.5444016659E+00
   -1.5384616600E+00   -1.5325671714E+00   -1.5267176789E+00   -1.5209126692E+00
   -1.5151516369E+00   -1.5094340840E+00   -1.5037595202E+00   -1.4981274626E+00
   -1.4925374352E+00   -1.4869889693E+00   -1.4814816032E+00   -1.4760148819E+00
   -1.4705883570E+00   -1.4652015869E+00   -1.4598541363E+00   -1.4545455762E+00
   -1.4492754839E+00   -1.4440434428E+00   -1.4388490423E+00   -1.4336918777E+00
   -1.4285715499E+00   -1.4234876658E+00   -1.4184398375E+00   -1.4134276830E+00
   -1.4084508253E+00   -1.4035088929E+00   -1.3986015194E+00   -1.3937283437E+00
   -1.3888890095E+00   -1.3840831655E+00   -1.3793104652E+00   -1.3745705670E+00
   -1.3698631339E+00   -1.3651878334E+00   -1.3605443376E+00   -1.3559323232E+00
   -1.3513514710E+00   -1.3468014663E+00   -1.3422819985E+00   -1.3377927613E+00
   -1.3333334524E+00   -1.3289037734E+00   -1.3245034300E+00   -1.3201321318E+00
   -1.3157895921E+00   -1.3114755280E+00   -1.3071896605E+00   -1.3029317139E+00
   -1.2987014164E+00   -1.2944984994E+00   -1.2903226979E+00   -1.2861737505E+00
   -1.2820513989E+00   -1.2779553883E+00   -1.2738854668E+00   -1.2698413861E+00
   -1.2658229009E+00   -1.2618297689E+00   -1.2578617509E+00   -1.2539186107E+00
   -1.2500001152E+00   -1.2461060340E+00   -1.2422361396E+00   -1.2383902074E+00
   -1.2345680155E+00   -1.2307693448E+00   -1.2269939789E+00   -1.2232417038E+00
   -1.2195123085E+00   -1.2158055842E+00   -1.2121213250E+00   -1.2084593271E+00
   -1.2048193895E+00   -1.2012013133E+00   -1.1976049023E+00   -1.1940299623E+00
   -1.1904763018E+00   -1.1869437312E+00   -1.1834320635E+00   -1.1799411135E+00
   -1.1764706985E+00   -1.1730206379E+00   -1.1695907530E+00   -1.1661808675E+00
   -1.1627908069E+00   -1.1594203988E+00   -1.1560694728E+00   -1.1527378605E+00
   -1.1494253954E+00   -1.1461319129E+00   -1.1428572504E+00   -1.1396012468E+00
   -1.1363637433E+00   -1.1331445826E+00   -1.1299436092E+00   -1.1267606694E+00
   -1.1235956114E+00   -1.1204482847E+00   -1.1173185409E+00   -1.1142062330E+00
   -1.1111112157E+00   -1.1080333453E+00   -1.1049724797E+00   -1.1019284783E+00
   -1.0989012023E+00   -1.0958905140E+00   -1.0928962776E+00   -1.0899183586E+00
   -1.0869566239E+00   -1.0840109420E+00   -1.0810811826E+00   -1.0781672171E+00
   -1.0752689181E+00   -1.0723861596E+00   -1.0695188169E+00   -1.0666667667E+00
   -1.0638298869E+00   -1.0610080569E+00   -1.0582011572E+00   -1.0554090697E+00
   -1.0526316774E+00   -1.0498688645E+00   -1.0471205166E+00   -1.0443865204E+00
   -1.0416667638E+00   -1.0389611358E+00   -1.0362695266E+00   -1.0335918275E+00
   -1.0309279309E+00   -1.0282777305E+00   -1.0256411209E+00   -1.0230179977E+00
   -1.0204082578E+00   -1.0178117991E+00   -1.0152285203E+00   -1.0126583215E+00
   -1.0101011034E+00   -1.0075567680E+00   -1.0050252183E+00   -1.0025063580E+00
   -1.0000000920E+00   -9.9750632609E-01   -9.9502496698E-01   -9.9255592230E-01
   -9.9009910061E-01   -9.8765441137E-01   -9.8522176493E-01   -9.8280107253E-01
   -9.8039224627E-01   -9.7799519911E-01   -9.7560984486E-01   -9.7323609817E-01
   -9.7087387452E-01   -9.6852309021E-01   -9.6618366234E-01   -9.6385550882E-01
   -9.6153854835E-01   -9.5923270040E-01   -9.5693788521E-01   -9.5465402379E-01
   -9.5238103790E-01   -9.5011885004E-01   -9.4786738345E-01   -9.4562656209E-01
   -9.4339631064E-01   -9.4117655449E-01   -9.3896721973E-01   -9.3676823314E-01
   -9.3457952218E-01   -9.3240101501E-01   -9.3023264043E-01   -9.2807432790E-01
   -9.2592600757E-01   -9.2378761019E-01   -9.2165906718E-01   -9.1954031057E-01
   -9.1743127302E-01   -9.1533188782E-01   -9.1324208886E-01   -9.1116181061E-01
   -9.0909098818E-01   -9.0702955723E-01   -9.0497745402E-01   -9.0293461538E-01
   -9.0090097872E-01   -8.9887648199E-01   -8.9686106373E-01   -8.9485466300E-01
   -8.9285721941E-01   -8.9086867312E-01   -8.8888896481E-01   -8.8691803570E-01
   -8.8495582751E-01   -8.8300228249E-01   -8.8105734340E-01   -8.7912095348E-01
   -8.7719305651E-01   -8.7527359672E-01   -8.7336251884E-01   -8.7145976811E-01
   -8.6956529020E-01   -8.6767903129E-01   -8.6580093800E-01   -8.6393095742E-01
   -8.6206903710E-01   -8.6021512504E-01   -8.5836916968E-01   -8.5653111992E-01
   -8.5470092506E-01   -8.5287853488E-01   -8.5106389954E-01   -8.4925696967E-01
   -8.4745769627E-01   -8.4566603080E-01   -8.4388192509E-01   -8.4210533141E-01
   -8.4033620241E-01   -8.3857449114E-01   -8.3682015104E-01   -8.3507313596E-01
   -8.3333340010E-01   -8.3160089807E-01   -8.2987558485E-01   -8.2815741578E-01
   -8.2644634658E-01   -8.2474233334E-01   -8.2304533250E-01   -8.2135530086E-01
   -8.1967219557E-01   -8.1799597416E-01   -8.1632659446E-01   -8.1466401468E-01
   -8.1300819335E-01   -8.1135908936E-01   -8.0971666189E-01   -8.0808087050E-01
   -8.0645167504E-01   -8.0482903569E-01   -8.0321291297E-01   -8.0160326770E-01
   -8.0000006100E-01   -7.9840325434E-01   -7.9681280945E-01   -7.9522868840E-01
   -7.9365085354E-01   -7.9207926753E-01   -7.9051389333E-01   -7.8895469417E-01
   -7.8740163359E-01   -7.8585467541E-01   -7.8431378373E-01   -7.8277892294E-01
   -7.8125005769E-01   -7.7972715294E-01   -7.7821017389E-01   -7.7669908601E-01
   -7.7519385507E-01   -7.7369444707E-01   -7.7220082829E-01   -7.7071296526E-01
   -7.6923082478E-01   -7.6775437391E-01   -7.6628357993E-01   -7.6481841041E-01
   -7.6335883313E-01   -7.6190481615E-01   -7.6045632775E-01   -7.5901333646E-01
   -7.5757581104E-01   -7.5614372051E-01   -7.5471703409E-01   -7.5329572125E-01
   -7.5187975169E-01   -7.5046909534E-01   -7.4906372235E-01   -7.4766360309E-01
   -7.4626870815E-01   -7.4487900836E-01   -7.4349447473E-01   -7.4211507852E-01
   -7.4074079118E-01   -7.3937158439E-01   -7.3800743002E-01   -7.3664830016E-01
   -7.3529416711E-01   -7.3394500334E-01   -7.3260078157E-01   -7.3126147469E-01
   -7.2992705579E-01   -7.2859749816E-01   -7.2727277529E-01   -7.2595286084E-01
   -7.2463772870E-01   -7.2332735291E-01   -7.2202170772E-01   -7.2072076755E-01
   -7.1942450703E-01   -7.1813290094E-01   -7.1684592427E-01   -7.1556355216E-01
   -7.1428575996E-01   -7.1301252316E-01   -7.1174381746E-01   -7.1047961870E-01
   -7.0921990292E-01   -7.0796464630E-01   -7.0671382523E-01   -7.0546741622E-01
   -7.0422539597E-01   -7.0298774135E-01   -7.0175442938E-01   -7.0052543724E-01
   -6.9930074228E-01   -6.9808032199E-01   -6.9686415404E-01   -6.9565221624E-01
   -6.9444448655E-01   -6.9324094310E-01   -6.9204156417E-01   -6.9084632816E-01
   -6.8965521366E-01   -6.8846819939E-01   -6.8728526419E-01   -6.8610638710E-01
   -6.8493154726E-01   -6.8376072396E-01   -6.8259389665E-01   -6.8143104489E-01
   -6.8027214842E-01   -6.7911718708E-01   -6.7796614086E-01   -6.7681898989E-01
   -6.7567571444E-01   -6.7453629488E-01   -6.7340071176E-01   -6.7226894572E-01
   -6.7114097756E-01   -6.7001678818E-01   -6.6889635863E-01   -6.6777967009E-01
   -6.6666670384E-01   -6.6555744130E-01   -6.6445186402E-01   -6.6334995367E-01
   -6.6225169202E-01   -6.6115706099E-01   -6.6006604261E-01   -6.5897861902E-01
   -6.5789477247E-01   -6.5681448536E-01   -6.5573774017E-01   -6.5466451952E-01
   -6.5359480612E-01   -6.5252858282E-01   -6.5146583256E-01   -6.5040653839E-01
   -6.4935068349E-01   -6.4829825114E-01   -6.4724922472E-01   -6.4620358772E-01
   -6.4516132374E-01   -6.4412241649E-01   -6.4308684978E-01   -6.4205460752E-01
   -6.4102567373E-01   -6.4000003253E-01   -6.3897766814E-01   -6.3795856488E-01
   -6.3694270717E-01   -6.3593007953E-01   -6.3492066659E-01   -6.3391445305E-01