<UPF version="2.0.1">
  <PP_INFO>

 This pseudopotential file has been produced using the code
 ONCVPSP  (Optimized Norm-Conservinng Vanderbilt PSeudopotential)
 scalar-relativistic version 3.3.1 12/12/2017 by D. R. Hamann
 The code is available through a link at URL www.mat-simresearch.com.
 Documentation with the package provides a full discription of the
 input data below.


 While it is not required under the terms of the GNU GPL, it is
 suggested that you cite D. R. Hamann, Phys. Rev. B 88, 085117 (2013)
 in any publication using these pseudopotentials.

    <PP_INPUTFILE>
# ATOM AND REFERENCE CONFIGURATION
# atsym  z   nc   nv     iexc    psfile
  Ne 10.00    1    2       3      upf
#
#   n    l    f        energy (Ha)
    1    0    2.00
    2    0    2.00
    2    1    6.00
#
# PSEUDOPOTENTIAL AND OPTIMIZATION
# lmax
    1
#
#   l,   rc,      ep,       ncon, nbas, qcut
    0   1.30000  -1.32246    4    7   8.00000
    1   1.70000  -0.49777    4    7   8.00000
#
# LOCAL POTENTIAL
# lloc, lpopt,  rc(5),   dvloc0
    4    5   1.30000      0.00000
#
# VANDERBILT-KLEINMAN-BYLANDER PROJECTORs
# l, nproj, debl
    0    2   1.50000
    1    2   1.50000
#
# MODEL CORE CHARGE
# icmod, fcfact, rcfact
    0   0.00000   0.00000
#
# LOG DERIVATIVE ANALYSIS
# epsh1, epsh2, depsh
  -12.00   12.00    0.02
#
# OUTPUT GRID
# rlmax, drl
    4.00    0.01
#
# TEST CONFIGURATIONS
# ncnf
    0
# nvcnf
#   n    l    f
    </PP_INPUTFILE>
  </PP_INFO>
  <!--                               -->
  <!-- END OF HUMAN READABLE SECTION -->
  <!--                               -->
    <PP_HEADER
       generated="Generated using ONCVPSP code by D. R. Hamann"
       author="anonymous"
       date="220413"
       comment=""
       element="Ne"
       pseudo_type="NC"
       relativistic="scalar"
       is_ultrasoft="F"
       is_paw="F"
       is_coulomb="F"
       has_so="F"
       has_wfc="F"
       has_gipaw="F"
       core_correction="F"
       functional="PZ"
       z_valence="    8.00"
       total_psenergy="  -6.65061487845E+01"
       rho_cutoff="   7.49000000000E+00"
       l_max="1"
       l_local="-1"
       mesh_size="   750"
       number_of_wfc="2"
       number_of_proj="4"/>
 <PP_MESH>
   <PP_R type="real"  size=" 750" columns="8">
    0.0000    0.0100    0.0200    0.0300    0.0400    0.0500    0.0600    0.0700
    0.0800    0.0900    0.1000    0.1100    0.1200    0.1300    0.1400    0.1500
    0.1600    0.1700    0.1800    0.1900    0.2000    0.2100    0.2200    0.2300
    0.2400    0.2500    0.2600    0.2700    0.2800    0.2900    0.3000    0.3100
    0.3200    0.3300    0.3400    0.3500    0.3600    0.3700    0.3800    0.3900
    0.4000    0.4100    0.4200    0.4300    0.4400    0.4500    0.4600    0.4700
    0.4800    0.4900    0.5000    0.5100    0.5200    0.5300    0.5400    0.5500
    0.5600    0.5700    0.5800    0.5900    0.6000    0.6100    0.6200    0.6300
    0.6400    0.6500    0.6600    0.6700    0.6800    0.6900    0.7000    0.7100
    0.7200    0.7300    0.7400    0.7500    0.7600    0.7700    0.7800    0.7900
    0.8000    0.8100    0.8200    0.8300    0.8400    0.8500    0.8600    0.8700
    0.8800    0.8900    0.9000    0.9100    0.9200    0.9300    0.9400    0.9500
    0.9600    0.9700    0.9800    0.9900    1.0000    1.0100    1.0200    1.0300
    1.0400    1.0500    1.0600    1.0700    1.0800    1.0900    1.1000    1.1100
    1.1200    1.1300    1.1400    1.1500    1.1600    1.1700    1.1800    1.1900
    1.2000    1.2100    1.2200    1.2300    1.2400    1.2500    1.2600    1.2700
    1.2800    1.2900    1.3000    1.3100    1.3200    1.3300    1.3400    1.3500
    1.3600    1.3700    1.3800    1.3900    1.4000    1.4100    1.4200    1.4300
    1.4400    1.4500    1.4600    1.4700    1.4800    1.4900    1.5000    1.5100
    1.5200    1.5300    1.5400    1.5500    1.5600    1.5700    1.5800    1.5900
    1.6000    1.6100    1.6200    1.6300    1.6400    1.6500    1.6600    1.6700
    1.6800    1.6900    1.7000    1.7100    1.7200    1.7300    1.7400    1.7500
    1.7600    1.7700    1.7800    1.7900    1.8000    1.8100    1.8200    1.8300
    1.8400    1.8500    1.8600    1.8700    1.8800    1.8900    1.9000    1.9100
    1.9200    1.9300    1.9400    1.9500    1.9600    1.9700    1.9800    1.9900
    2.0000    2.0100    2.0200    2.0300    2.0400    2.0500    2.0600    2.0700
    2.0800    2.0900    2.1000    2.1100    2.1200    2.1300    2.1400    2.1500
    2.1600    2.1700    2.1800    2.1900    2.2000    2.2100    2.2200    2.2300
    2.2400    2.2500    2.2600    2.2700    2.2800    2.2900    2.3000    2.3100
    2.3200    2.3300    2.3400    2.3500    2.3600    2.3700    2.3800    2.3900
    2.4000    2.4100    2.4200    2.4300    2.4400    2.4500    2.4600    2.4700
    2.4800    2.4900    2.5000    2.5100    2.5200    2.5300    2.5400    2.5500
    2.5600    2.5700    2.5800    2.5900    2.6000    2.6100    2.6200    2.6300
    2.6400    2.6500    2.6600    2.6700    2.6800    2.6900    2.7000    2.7100
    2.7200    2.7300    2.7400    2.7500    2.7600    2.7700    2.7800    2.7900
    2.8000    2.8100    2.8200    2.8300    2.8400    2.8500    2.8600    2.8700
    2.8800    2.8900    2.9000    2.9100    2.9200    2.9300    2.9400    2.9500
    2.9600    2.9700    2.9800    2.9900    3.0000    3.0100    3.0200    3.0300
    3.0400    3.0500    3.0600    3.0700    3.0800    3.0900    3.1000    3.1100
    3.1200    3.1300    3.1400    3.1500    3.1600    3.1700    3.1800    3.1900
    3.2000    3.2100    3.2200    3.2300    3.2400    3.2500    3.2600    3.2700
    3.2800    3.2900    3.3000    3.3100    3.3200    3.3300    3.3400    3.3500
    3.3600    3.3700    3.3800    3.3900    3.4000    3.4100    3.4200    3.4300
    3.4400    3.4500    3.4600    3.4700    3.4800    3.4900    3.5000    3.5100
    3.5200    3.5300    3.5400    3.5500    3.5600    3.5700    3.5800    3.5900
    3.6000    3.6100    3.6200    3.6300    3.6400    3.6500    3.6600    3.6700
    3.6800    3.6900    3.7000    3.7100    3.7200    3.7300    3.7400    3.7500
    3.7600    3.7700    3.7800    3.7900    3.8000    3.8100    3.8200    3.8300
    3.8400    3.8500    3.8600    3.8700    3.8800    3.8900    3.9000    3.9100
    3.9200    3.9300    3.9400    3.9500    3.9600    3.9700    3.9800    3.9900
    4.0000    4.0100    4.0200    4.0300    4.0400    4.0500    4.0600    4.0700
    4.0800    4.0900    4.1000    4.1100    4.1200    4.1300    4.1400    4.1500
    4.1600    4.1700    4.1800    4.1900    4.2000    4.2100    4.2200    4.2300
    4.2400    4.2500    4.2600    4.2700    4.2800    4.2900    4.3000    4.3100
    4.3200    4.3300    4.3400    4.3500    4.3600    4.3700    4.3800    4.3900
    4.4000    4.4100    4.4200    4.4300    4.4400    4.4500    4.4600    4.4700
    4.4800    4.4900    4.5000    4.5100    4.5200    4.5300    4.5400    4.5500
    4.5600    4.5700    4.5800    4.5900    4.6000    4.6100    4.6200    4.6300
    4.6400    4.6500    4.6600    4.6700    4.6800    4.6900    4.7000    4.7100
    4.7200    4.7300    4.7400    4.7500    4.7600    4.7700    4.7800    4.7900
    4.8000    4.8100    4.8200    4.8300    4.8400    4.8500    4.8600    4.8700
    4.8800    4.8900    4.9000    4.9100    4.9200    4.9300    4.9400    4.9500
    4.9600    4.9700    4.9800    4.9900    5.0000    5.0100    5.0200    5.0300
    5.0400    5.0500    5.0600    5.0700    5.0800    5.0900    5.1000    5.1100
    5.1200    5.1300    5.1400    5.1500    5.1600    5.1700    5.1800    5.1900
    5.2000    5.2100    5.2200    5.2300    5.2400    5.2500    5.2600    5.2700
    5.2800    5.2900    5.3000    5.3100    5.3200    5.3300    5.3400    5.3500
    5.3600    5.3700    5.3800    5.3900    5.4000    5.4100    5.4200    5.4300
    5.4400    5.4500    5.4600    5.4700    5.4800    5.4900    5.5000    5.5100
    5.5200    5.5300    5.5400    5.5500    5.5600    5.5700    5.5800    5.5900
    5.6000    5.6100    5.6200    5.6300    5.6400    5.6500    5.6600    5.6700
    5.6800    5.6900    5.7000    5.7100    5.7200    5.7300    5.7400    5.7500
    5.7600    5.7700    5.7800    5.7900    5.8000    5.8100    5.8200    5.8300
    5.8400    5.8500    5.8600    5.8700    5.8800    5.8900    5.9000    5.9100
    5.9200    5.9300    5.9400    5.9500    5.9600    5.9700    5.9800    5.9900
    6.0000    6.0100    6.0200    6.0300    6.0400    6.0500    6.0600    6.0700
    6.0800    6.0900    6.1000    6.1100    6.1200    6.1300    6.1400    6.1500
    6.1600    6.1700    6.1800    6.1900    6.2000    6.2100    6.2200    6.2300
    6.2400    6.2500    6.2600    6.2700    6.2800    6.2900    6.3000    6.3100
    6.3200    6.3300    6.3400    6.3500    6.3600    6.3700    6.3800    6.3900
    6.4000    6.4100    6.4200    6.4300    6.4400    6.4500    6.4600    6.4700
    6.4800    6.4900    6.5000    6.5100    6.5200    6.5300    6.5400    6.5500
    6.5600    6.5700    6.5800    6.5900    6.6000    6.6100    6.6200    6.6300
    6.6400    6.6500    6.6600    6.6700    6.6800    6.6900    6.7000    6.7100
    6.7200    6.7300    6.7400    6.7500    6.7600    6.7700    6.7800    6.7900
    6.8000    6.8100    6.8200    6.8300    6.8400    6.8500    6.8600    6.8700
    6.8800    6.8900    6.9000    6.9100    6.9200    6.9300    6.9400    6.9500
    6.9600    6.9700    6.9800    6.9900    7.0000    7.0100    7.0200    7.0300
    7.0400    7.0500    7.0600    7.0700    7.0800    7.0900    7.1000    7.1100
    7.1200    7.1300    7.1400    7.1500    7.1600    7.1700    7.1800    7.1900
    7.2000    7.2100    7.2200    7.2300    7.2400    7.2500    7.2600    7.2700
    7.2800    7.2900    7.3000    7.3100    7.3200    7.3300    7.3400    7.3500
    7.3600    7.3700    7.3800    7.3900    7.4000    7.4100    7.4200    7.4300
    7.4400    7.4500    7.4600    7.4700    7.4800    7.4900
   </PP_R>
   <PP_RAB type="real"  size=" 750" columns="8">
    0.0100    0.0100    0.0100    0.0100    0.0100    0.0100    0.0100    0.0100
    0.0100    0.0100    0.0100    0.0100    0.0100    0.0100    0.0100    0.0100
    0.0100    0.0100    0.0100    0.0100    0.0100    0.0100    0.0100    0.0100
    0.0100    0.0100    0.0100    0.0100    0.0100    0.0100    0.0100    0.0100
    0.0100    0.0100    0.0100    0.0100    0.0100    0.0100    0.0100    0.0100
    0.0100    0.0100    0.0100    0.0100    0.0100    0.0100    0.0100    0.0100
    0.0100    0.0100    0.0100    0.0100    0.0100    0.0100    0.0100    0.0100
    0.0100    0.0100    0.0100    0.0100    0.0100    0.0100    0.0100    0.0100
    0.0100    0.0100    0.0100    0.0100    0.0100    0.0100    0.0100    0.0100
    0.0100    0.0100    0.0100    0.0100    0.0100    0.0100    0.0100    0.0100
    0.0100    0.0100    0.0100    0.0100    0.0100    0.0100    0.0100    0.0100
    0.0100    0.0100    0.0100    0.0100    0.0100    0.0100    0.0100    0.0100
    0.0100    0.0100    0.0100    0.0100    0.0100    0.0100    0.0100    0.0100
    0.0100    0.0100    0.0100    0.0100    0.0100    0.0100    0.0100    0.0100
    0.0100    0.0100    0.0100    0.0100    0.0100    0.0100    0.0100    0.0100
    0.0100    0.0100    0.0100    0.0100    0.0100    0.0100    0.0100    0.0100
    0.0100    0.0100    0.0100    0.0100    0.0100    0.0100    0.0100    0.0100
    0.0100    0.0100    0.0100    0.0100    0.0100    0.0100    0.0100    0.0100
    0.0100    0.0100    0.0100    0.0100    0.0100    0.0100    0.0100    0.0100
    0.0100    0.0100    0.0100    0.0100    0.0100    0.0100    0.0100    0.0100
    0.0100    0.0100    0.0100    0.0100    0.0100    0.0100    0.0100    0.0100
    0.0100    0.0100    0.0100    0.0100    0.0100    0.0100    0.0100    0.0100
    0.0100    0.0100    0.0100    0.0100    0.0100    0.0100    0.0100    0.0100
    0.0100    0.0100    0.0100    0.0100    0.0100    0.0100    0.0100    0.0100
    0.0100    0.0100    0.0100    0.0100    0.0100    0.0100    0.0100    0.0100
    0.0100    0.0100    0.0100    0.0100    0.0100    0.0100    0.0100    0.0100
    0.0100    0.0100    0.0100    0.0100    0.0100    0.0100    0.0100    0.0100
    0.0100    0.0100    0.0100    0.0100    0.0100    0.0100    0.0100    0.0100
    0.0100    0.0100    0.0100    0.0100    0.0100    0.0100    0.0100    0.0100
    0.0100    0.0100    0.0100    0.0100    0.0100    0.0100    0.0100    0.0100
    0.0100    0.0100    0.0100    0.0100    0.0100    0.0100    0.0100    0.0100
    0.0100    0.0100    0.0100    0.0100    0.0100    0.0100    0.0100    0.0100
    0.0100    0.0100    0.0100    0.0100    0.0100    0.0100    0.0100    0.0100
    0.0100    0.0100    0.0100    0.0100    0.0100    0.0100    0.0100    0.0100
    0.0100    0.0100    0.0100    0.0100    0.0100    0.0100    0.0100    0.0100
    0.0100    0.0100    0.0100    0.0100    0.0100    0.0100    0.0100    0.0100
    0.0100    0.0100    0.0100    0.0100    0.0100    0.0100    0.0100    0.0100
    0.0100    0.0100    0.0100    0.0100    0.0100    0.0100    0.0100    0.0100
    0.0100    0.0100    0.0100    0.0100    0.0100    0.0100    0.0100    0.0100
    0.0100    0.0100    0.0100    0.0100    0.0100    0.0100    0.0100    0.0100
    0.0100    0.0100    0.0100    0.0100    0.0100    0.0100    0.0100    0.0100
    0.0100    0.0100    0.0100    0.0100    0.0100    0.0100    0.0100    0.0100
    0.0100    0.0100    0.0100    0.0100    0.0100    0.0100    0.0100    0.0100
    0.0100    0.0100    0.0100    0.0100    0.0100    0.0100    0.0100    0.0100
    0.0100    0.0100    0.0100    0.0100    0.0100    0.0100    0.0100    0.0100
    0.0100    0.0100    0.0100    0.0100    0.0100    0.0100    0.0100    0.0100
    0.0100    0.0100    0.0100    0.0100    0.0100    0.0100    0.0100    0.0100
    0.0100    0.0100    0.0100    0.0100    0.0100    0.0100    0.0100    0.0100
    0.0100    0.0100    0.0100    0.0100    0.0100    0.0100    0.0100    0.0100
    0.0100    0.0100    0.0100    0.0100    0.0100    0.0100    0.0100    0.0100
    0.0100    0.0100    0.0100    0.0100    0.0100    0.0100    0.0100    0.0100
    0.0100    0.0100    0.0100    0.0100    0.0100    0.0100    0.0100    0.0100
    0.0100    0.0100    0.0100    0.0100    0.0100    0.0100    0.0100    0.0100
    0.0100    0.0100    0.0100    0.0100    0.0100    0.0100    0.0100    0.0100
    0.0100    0.0100    0.0100    0.0100    0.0100    0.0100    0.0100    0.0100
    0.0100    0.0100    0.0100    0.0100    0.0100    0.0100    0.0100    0.0100
    0.0100    0.0100    0.0100    0.0100    0.0100    0.0100    0.0100    0.0100
    0.0100    0.0100    0.0100    0.0100    0.0100    0.0100    0.0100    0.0100
    0.0100    0.0100    0.0100    0.0100    0.0100    0.0100    0.0100    0.0100
    0.0100    0.0100    0.0100    0.0100    0.0100    0.0100    0.0100    0.0100
    0.0100    0.0100    0.0100    0.0100    0.0100    0.0100    0.0100    0.0100
    0.0100    0.0100    0.0100    0.0100    0.0100    0.0100    0.0100    0.0100
    0.0100    0.0100    0.0100    0.0100    0.0100    0.0100    0.0100    0.0100
    0.0100    0.0100    0.0100    0.0100    0.0100    0.0100    0.0100    0.0100
    0.0100    0.0100    0.0100    0.0100    0.0100    0.0100    0.0100    0.0100
    0.0100    0.0100    0.0100    0.0100    0.0100    0.0100    0.0100    0.0100
    0.0100    0.0100    0.0100    0.0100    0.0100    0.0100    0.0100    0.0100
    0.0100    0.0100    0.0100    0.0100    0.0100    0.0100    0.0100    0.0100
    0.0100    0.0100    0.0100    0.0100    0.0100    0.0100    0.0100    0.0100
    0.0100    0.0100    0.0100    0.0100    0.0100    0.0100    0.0100    0.0100
    0.0100    0.0100    0.0100    0.0100    0.0100    0.0100    0.0100    0.0100
    0.0100    0.0100    0.0100    0.0100    0.0100    0.0100    0.0100    0.0100
    0.0100    0.0100    0.0100    0.0100    0.0100    0.0100    0.0100    0.0100
    0.0100    0.0100    0.0100    0.0100    0.0100    0.0100    0.0100    0.0100
    0.0100    0.0100    0.0100    0.0100    0.0100    0.0100    0.0100    0.0100
    0.0100    0.0100    0.0100    0.0100    0.0100    0.0100    0.0100    0.0100
    0.0100    0.0100    0.0100    0.0100    0.0100    0.0100    0.0100    0.0100
    0.0100    0.0100    0.0100    0.0100    0.0100    0.0100    0.0100    0.0100
    0.0100    0.0100    0.0100    0.0100    0.0100    0.0100    0.0100    0.0100
    0.0100    0.0100    0.0100    0.0100    0.0100    0.0100    0.0100    0.0100
    0.0100    0.0100    0.0100    0.0100    0.0100    0.0100    0.0100    0.0100
    0.0100    0.0100    0.0100    0.0100    0.0100    0.0100    0.0100    0.0100
    0.0100    0.0100    0.0100    0.0100    0.0100    0.0100    0.0100    0.0100
    0.0100    0.0100    0.0100    0.0100    0.0100    0.0100    0.0100    0.0100
    0.0100    0.0100    0.0100    0.0100    0.0100    0.0100    0.0100    0.0100
    0.0100    0.0100    0.0100    0.0100    0.0100    0.0100    0.0100    0.0100
    0.0100    0.0100    0.0100    0.0100    0.0100    0.0100    0.0100    0.0100
    0.0100    0.0100    0.0100    0.0100    0.0100    0.0100    0.0100    0.0100
    0.0100    0.0100    0.0100    0.0100    0.0100    0.0100    0.0100    0.0100
    0.0100    0.0100    0.0100    0.0100    0.0100    0.0100    0.0100    0.0100
    0.0100    0.0100    0.0100    0.0100    0.0100    0.0100    0.0100    0.0100
    0.0100    0.0100    0.0100    0.0100    0.0100    0.0100    0.0100    0.0100
    0.0100    0.0100    0.0100    0.0100    0.0100    0.0100    0.0100    0.0100
    0.0100    0.0100    0.0100    0.0100    0.0100    0.0100
   </PP_RAB>
 </PP_MESH>
  <PP_LOCAL type="real"  size=" 750" columns="4">
   -2.6845747544E+01   -2.6843806340E+01   -2.6837988760E+01   -2.6828312821E+01
   -2.6814807991E+01   -2.6797514413E+01   -2.6776481870E+01   -2.6751768548E+01
   -2.6723439667E+01   -2.6691566029E+01   -2.6656222566E+01   -2.6617486918E+01
   -2.6575438100E+01   -2.6530155297E+01   -2.6481716792E+01   -2.6430199067E+01
   -2.6375676063E+01   -2.6318218603E+01   -2.6257893975E+01   -2.6194765652E+01
   -2.6128893147E+01   -2.6060331979E+01   -2.5989133732E+01   -2.5915346196E+01
   -2.5839013576E+01   -2.5760176744E+01   -2.5678873539E+01   -2.5595139086E+01
   -2.5509006137E+01   -2.5420505420E+01   -2.5329665992E+01   -2.5236515587E+01
   -2.5141080962E+01   -2.5043388220E+01   -2.4943463133E+01   -2.4841331439E+01
   -2.4737019121E+01   -2.4630552672E+01   -2.4521959334E+01   -2.4411267317E+01
   -2.4298505997E+01   -2.4183706096E+01   -2.4066899830E+01   -2.3948121049E+01
   -2.3827405347E+01   -2.3704790152E+01   -2.3580314804E+01   -2.3454020605E+01
   -2.3325950853E+01   -2.3196150863E+01   -2.3064667967E+01   -2.2931551497E+01
   -2.2796852758E+01   -2.2660624986E+01   -2.2522923288E+01   -2.2383804576E+01
   -2.2243327489E+01   -2.2101552304E+01   -2.1958540836E+01   -2.1814356337E+01
   -2.1669063380E+01   -2.1522727744E+01   -2.1375416290E+01   -2.1227196832E+01
   -2.1078138011E+01   -2.0928309162E+01   -2.0777780177E+01   -2.0626621375E+01
   -2.0474903367E+01   -2.0322696922E+01   -2.0170072837E+01   -2.0017101806E+01
   -1.9863854297E+01   -1.9710400422E+01   -1.9556809827E+01   -1.9403151566E+01
   -1.9249493998E+01   -1.9095904678E+01   -1.8942450256E+01   -1.8789196380E+01
   -1.8636207607E+01   -1.8483547319E+01   -1.8331277641E+01   -1.8179459371E+01
   -1.8028151909E+01   -1.7877413198E+01   -1.7727299663E+01   -1.7577866166E+01
   -1.7429165953E+01   -1.7281250620E+01   -1.7134170074E+01   -1.6987972499E+01
   -1.6842704335E+01   -1.6698410254E+01   -1.6555133139E+01   -1.6412914071E+01
   -1.6271792319E+01   -1.6131805330E+01   -1.5992988723E+01   -1.5855376289E+01
   -1.5718999987E+01   -1.5583889946E+01   -1.5450074470E+01   -1.5317580039E+01
   -1.5186431314E+01   -1.5056651146E+01   -1.4928260577E+01   -1.4801278851E+01
   -1.4675723418E+01   -1.4551609940E+01   -1.4428952298E+01   -1.4307762592E+01
   -1.4188051150E+01   -1.4069826529E+01   -1.3953095514E+01   -1.3837863120E+01
   -1.3724132590E+01   -1.3611905639E+01   -1.3501180529E+01   -1.3391956409E+01
   -1.3284242260E+01   -1.3177976278E+01   -1.3073130545E+01   -1.2969784571E+01
   -1.2867921401E+01   -1.2767503346E+01   -1.2668523184E+01   -1.2570963908E+01
   -1.2474806085E+01   -1.2380028900E+01   -1.2286609494E+01   -1.2194522783E+01
   -1.2103741729E+01   -1.2014238556E+01   -1.1925985826E+01   -1.1838957308E+01
   -1.1753127671E+01   -1.1668472462E+01   -1.1584968089E+01   -1.1502591782E+01
   -1.1421321558E+01   -1.1341136183E+01   -1.1262015143E+01   -1.1183938601E+01
   -1.1106887372E+01   -1.1030842887E+01   -1.0955787157E+01   -1.0881702750E+01
   -1.0808572751E+01   -1.0736380741E+01   -1.0665110759E+01   -1.0594747282E+01
   -1.0525275190E+01   -1.0456679743E+01   -1.0388946557E+01   -1.0322061573E+01
   -1.0256011040E+01   -1.0190781485E+01   -1.0126359695E+01   -1.0062732696E+01
   -9.9998877302E+00   -9.9378122377E+00   -9.8764938393E+00   -9.8159203185E+00
   -9.7560796052E+00   -9.6969597610E+00   -9.6385489658E+00   -9.5808355043E+00
   -9.5238077535E+00   -9.4674541747E+00   -9.4117632976E+00   -9.3567237344E+00
   -9.3023242085E+00   -9.2485535926E+00   -9.1954010084E+00   -9.1428558753E+00
   -9.0909078509E+00   -9.0395468097E+00   -8.9887628582E+00   -8.9385463248E+00
   -8.8888877526E+00   -8.8397778935E+00   -8.7912077029E+00   -8.7431683338E+00
   -8.6956511314E+00   -8.6486476281E+00   -8.6021495387E+00   -8.5561487547E+00
   -8.5106373405E+00   -8.4656075283E+00   -8.4210517139E+00   -8.3769624522E+00
   -8.3333324535E+00   -8.2901545789E+00   -8.2474218368E+00   -8.2051273790E+00
   -8.1632644971E+00   -8.1218266189E+00   -8.0808073049E+00   -8.0402002452E+00
   -7.9999992559E+00   -7.9601982762E+00   -7.9207913655E+00   -7.8817727000E+00
   -7.8431365703E+00   -7.8048773783E+00   -7.7669896346E+00   -7.7294679559E+00
   -7.6923070625E+00   -7.6555017756E+00   -7.6190470150E+00   -7.5829377971E+00
   -7.5471692321E+00   -7.5117365220E+00   -7.4766349586E+00   -7.4418599212E+00
   -7.4074068749E+00   -7.3732713680E+00   -7.3394490308E+00   -7.3059355733E+00
   -7.2727267835E+00   -7.2398185256E+00   -7.2072067384E+00   -7.1748874335E+00
   -7.1428566938E+00   -7.1111106716E+00   -7.0796455877E+00   -7.0484577290E+00
   -7.0175434480E+00   -6.9868991606E+00   -6.9565213452E+00   -6.9264065411E+00
   -6.8965513473E+00   -6.8669524211E+00   -6.8376064772E+00   -6.8085102860E+00
   -6.7796606725E+00   -6.7510545157E+00   -6.7226887467E+00   -6.6945603480E+00
   -6.6666663526E+00   -6.6390038426E+00   -6.6115699483E+00   -6.5843618473E+00
   -6.5573767635E+00   -6.5306119660E+00   -6.5040647685E+00   -6.4777325279E+00
   -6.4516126441E+00   -6.4257025585E+00   -6.3999997536E+00   -6.3745017518E+00
   -6.3492061150E+00   -6.3241104438E+00   -6.2992123761E+00   -6.2745095874E+00
   -6.2499997892E+00   -6.2256807287E+00   -6.2015501880E+00   -6.1776059834E+00
   -6.1538459650E+00   -6.1302680157E+00   -6.1068700507E+00   -6.0836500169E+00
   -6.0606058925E+00   -6.0377356859E+00   -6.0150374357E+00   -5.9925092098E+00
   -5.9701491050E+00   -5.9479552463E+00   -5.9259257865E+00   -5.9040589057E+00
   -5.8823528107E+00   -5.8608057347E+00   -5.8394159367E+00   -5.8181817007E+00
   -5.7971013360E+00   -5.7761731761E+00   -5.7553955784E+00   -5.7347669241E+00
   -5.7142856172E+00   -5.6939500848E+00   -5.6737587759E+00   -5.6537101618E+00
   -5.6338027351E+00   -5.6140350096E+00   -5.5944055199E+00   -5.5749128210E+00
   -5.5555554881E+00   -5.5363321159E+00   -5.5172413187E+00   -5.4982817297E+00
   -5.4794520008E+00   -5.4607508025E+00   -5.4421768233E+00   -5.4237287692E+00
   -5.4054053642E+00   -5.3872053490E+00   -5.3691274816E+00   -5.3511705364E+00
   -5.3333333041E+00   -5.3156145916E+00   -5.2980132215E+00   -5.2805280321E+00
   -5.2631578768E+00   -5.2459016241E+00   -5.2287581574E+00   -5.2117263744E+00
   -5.1948051875E+00   -5.1779935227E+00   -5.1612903203E+00   -5.1446945340E+00
   -5.1282051309E+00   -5.1118210913E+00   -5.0955414087E+00   -5.0793650891E+00
   -5.0632911513E+00   -5.0473186263E+00   -5.0314465574E+00   -5.0156739999E+00
   -5.0000000209E+00   -4.9844236990E+00   -4.9689441245E+00   -4.9535603987E+00
   -4.9382716341E+00   -4.9230769543E+00   -4.9079754933E+00   -4.8929663959E+00
   -4.8780488175E+00   -4.8632219233E+00   -4.8484848892E+00   -4.8338369005E+00
   -4.8192771527E+00   -4.8048048508E+00   -4.7904192094E+00   -4.7761194524E+00
   -4.7619048130E+00   -4.7477745335E+00   -4.7337278650E+00   -4.7197640678E+00
   -4.7058824105E+00   -4.6920821705E+00   -4.6783626337E+00   -4.6647230941E+00
   -4.6511628542E+00   -4.6376812244E+00   -4.6242775230E+00   -4.6109510764E+00
   -4.5977012185E+00   -4.5845272911E+00   -4.5714286432E+00   -4.5584046315E+00
   -4.5454546198E+00   -4.5325779793E+00   -4.5197740881E+00   -4.5070423315E+00
   -4.4943821017E+00   -4.4817927974E+00   -4.4692738245E+00   -4.4568245951E+00
   -4.4444445281E+00   -4.4321330488E+00   -4.4198895886E+00   -4.4077135855E+00
   -4.3956044835E+00   -4.3835617327E+00   -4.3715847893E+00   -4.3596731154E+00
   -4.3478261787E+00   -4.3360434531E+00   -4.3243244179E+00   -4.3126685581E+00
   -4.3010753642E+00   -4.2895443322E+00   -4.2780749634E+00   -4.2666667645E+00
   -4.2553192476E+00   -4.2440319297E+00   -4.2328043330E+00   -4.2216359849E+00
   -4.2105264175E+00   -4.1994751681E+00   -4.1884817786E+00   -4.1775457958E+00
   -4.1666667712E+00   -4.1558442610E+00   -4.1450778260E+00   -4.1343670315E+00
   -4.1237114473E+00   -4.1131106475E+00   -4.1025642108E+00   -4.0920717201E+00
   -4.0816327625E+00   -4.0712469293E+00   -4.0609138161E+00   -4.0506330224E+00
   -4.0404041519E+00   -4.0302268123E+00   -4.0201006150E+00   -4.0100251756E+00
   -4.0000001134E+00   -3.9900250515E+00   -3.9800996168E+00   -3.9702234398E+00
   -3.9603961547E+00   -3.9506173995E+00   -3.9408868154E+00   -3.9312040475E+00
   -3.9215687441E+00   -3.9119805571E+00   -3.9024391417E+00   -3.8929441566E+00
   -3.8834952636E+00   -3.8740921280E+00   -3.8647344181E+00   -3.8554218056E+00
   -3.8461539653E+00   -3.8369305751E+00   -3.8277513159E+00   -3.8186158717E+00
   -3.8095239297E+00   -3.8004751798E+00   -3.7914693149E+00   -3.7825060310E+00
   -3.7735850267E+00   -3.7647060036E+00   -3.7558686660E+00   -3.7470727211E+00
   -3.7383178788E+00   -3.7296038515E+00   -3.7209303546E+00   -3.7122971060E+00
   -3.7037038261E+00   -3.6951502379E+00   -3.6866360673E+00   -3.6781610422E+00
   -3.6697248934E+00   -3.6613273540E+00   -3.6529681595E+00   -3.6446470479E+00
   -3.6363637595E+00   -3.6281180370E+00   -3.6199096255E+00   -3.6117382723E+00
   -3.6036037270E+00   -3.5955057414E+00   -3.5874440696E+00   -3.5794184680E+00
   -3.5714286949E+00   -3.5634745110E+00   -3.5555556790E+00   -3.5476719638E+00
   -3.5398231323E+00   -3.5320089535E+00   -3.5242291983E+00   -3.5164836399E+00
   -3.5087720532E+00   -3.5010942152E+00   -3.4934499050E+00   -3.4858389032E+00
   -3.4782609928E+00   -3.4707159583E+00   -3.4632035863E+00   -3.4557236651E+00
   -3.4482759850E+00   -3.4408603379E+00   -3.4334765176E+00   -3.4261243197E+00
   -3.4188035414E+00   -3.4115139818E+00   -3.4042554415E+00   -3.3970277231E+00
   -3.3898306306E+00   -3.3826639698E+00   -3.3755275481E+00   -3.3684211744E+00
   -3.3613446595E+00   -3.3542978154E+00   -3.3472804561E+00   -3.3402923968E+00
   -3.3333334544E+00   -3.3264034473E+00   -3.3195021955E+00   -3.3126295202E+00
   -3.3057852444E+00   -3.2989691924E+00   -3.2921811901E+00   -3.2854210645E+00
   -3.2786886444E+00   -3.2719837597E+00   -3.2653062418E+00   -3.2586559237E+00
   -3.2520326393E+00   -3.2454362243E+00   -3.2388665154E+00   -3.2323233507E+00
   -3.2258065698E+00   -3.2193160134E+00   -3.2128515234E+00   -3.2064129432E+00
   -3.2000001174E+00   -3.1936128916E+00   -3.1872511129E+00   -3.1809146296E+00
   -3.1746032911E+00   -3.1683169479E+00   -3.1620554520E+00   -3.1558186562E+00
   -3.1496064148E+00   -3.1434185829E+00   -3.1372550170E+00   -3.1311155747E+00
   -3.1250001146E+00   -3.1189084964E+00   -3.1128405810E+00   -3.1067962303E+00
   -3.1007753074E+00   -3.0947776762E+00   -3.0888032018E+00   -3.0828517505E+00
   -3.0769231894E+00   -3.0710173867E+00   -3.0651342116E+00   -3.0592735343E+00
   -3.0534352259E+00   -3.0476191588E+00   -3.0418252060E+00   -3.0360532415E+00
   -3.0303031406E+00   -3.0245747792E+00   -3.0188680343E+00   -3.0131827837E+00
   -3.0075189062E+00   -3.0018762815E+00   -2.9962547903E+00   -2.9906543140E+00
   -2.9850747349E+00   -2.9795159364E+00   -2.9739778026E+00   -2.9684602185E+00
   -2.9629630699E+00   -2.9574862434E+00   -2.9520296266E+00   -2.9465931078E+00
   -2.9411765763E+00   -2.9357799219E+00   -2.9304030355E+00   -2.9250458086E+00
   -2.9197081337E+00   -2.9143899038E+00   -2.9090910130E+00   -2.9038113558E+00
   -2.8985508279E+00   -2.8933093254E+00   -2.8880867452E+00   -2.8828829852E+00
   -2.8776979438E+00   -2.8725315200E+00   -2.8673836139E+00   -2.8622541261E+00
   -2.8571429579E+00   -2.8520500113E+00   -2.8469751891E+00   -2.8419183947E+00
   -2.8368795321E+00   -2.8318585063E+00   -2.8268552226E+00   -2.8218695871E+00
   -2.8169015067E+00   -2.8119508888E+00   -2.8070176415E+00   -2.8021016735E+00
   -2.7972028942E+00   -2.7923212136E+00   -2.7874565423E+00   -2.7826087917E+00
   -2.7777778735E+00   -2.7729637002E+00   -2.7681661850E+00   -2.7633852415E+00
   -2.7586207840E+00   -2.7538727275E+00   -2.7491409872E+00   -2.7444254794E+00
   -2.7397261205E+00   -2.7350428278E+00   -2.7303755191E+00   -2.7257241126E+00
   -2.7210885272E+00   -2.7164686823E+00   -2.7118644979E+00   -2.7072758946E+00
   -2.7027027932E+00   -2.6981451155E+00   -2.6936027835E+00   -2.6890757198E+00
   -2.6845638476E+00   -2.6800670906E+00   -2.6755853728E+00   -2.6711186191E+00
   -2.6666667546E+00   -2.6622297049E+00   -2.6578073962E+00   -2.6533997553E+00
   -2.6490067091E+00   -2.6446281855E+00   -2.6402641124E+00   -2.6359144184E+00
   -2.6315790327E+00   -2.6272578847E+00   -2.6229509044E+00   -2.6186580222E+00