<UPF version="2.0.1">
  <PP_INFO>

 This pseudopotential file has been produced using the code
 ONCVPSP  (Optimized Norm-Conservinng Vanderbilt PSeudopotential)
 fully-relativistic version 4.0.1 06/04/2019 by D. R. Hamann
 The code is available through a link at URL www.mat-simresearch.com.
 Documentation with the package provides a full discription of the
 input data below.


 While it is not required under the terms of the GNU GPL, it is
 suggested that you cite D. R. Hamann, Phys. Rev. B 88, 085117 (2013)
 in any publication using these pseudopotentials.

    <PP_INPUTFILE>
# ATOM AND REFERENCE CONFIGURATION
# atsym  z   nc   nv     iexc    psfile
  F  9.00    1    2       4      upf
#
#   n    l    f        energy (Ha)
    1    0    2.00
    2    0    2.00
    2    1    5.00
#
# PSEUDOPOTENTIAL AND OPTIMIZATION
# lmax
    1
#
#   l,   rc,     ep,   ncon, nbas, qcut
    0   1.56741   0.00000    5    8   8.73495
    1   1.64712   0.00000    5    8   8.69707
#
# LOCAL POTENTIAL
# lloc, lpopt,  rc(5),   dvloc0
    4    5   0.96222      0.00000
#
# VANDERBILT-KLEINMAN-BYLANDER PROJECTORs
# l, nproj, debl
    0    2   1.51125
    1    2   1.53167
#
# MODEL CORE CHARGE
# icmod, fcfact, rcfact
    0   0.00000   0.00000
#
# LOG DERIVATIVE ANALYSIS
# epsh1, epsh2, depsh
   -5.00    3.00    0.02
#
# OUTPUT GRID
# rlmax, drl
    6.00    0.01
#
# TEST CONFIGURATIONS
# ncnf
    0
# nvcnf
#   n    l    f
    </PP_INPUTFILE>
  </PP_INFO>
  <!--                               -->
  <!-- END OF HUMAN READABLE SECTION -->
  <!--                               -->
    <PP_HEADER
       generated="Generated using ONCVPSP code by D. R. Hamann"
       author="anonymous"
       date="220414"
       comment=""
       element="F "
       pseudo_type="NC"
       relativistic="full"
       is_ultrasoft="F"
       is_paw="F"
       is_coulomb="F"
       has_so="T"
       has_wfc="F"
       has_gipaw="F"
       core_correction="F"
       functional="PBE"
       z_valence="    7.00"
       total_psenergy="  -4.74753013691E+01"
       rho_cutoff="   8.31000000000E+00"
       l_max="1"
       l_local="-1"
       mesh_size="   832"
       number_of_wfc="3"
       number_of_proj="6"/>
 <PP_MESH>
   <PP_R type="real"  size=" 832" columns="8">
    0.0000    0.0100    0.0200    0.0300    0.0400    0.0500    0.0600    0.0700
    0.0800    0.0900    0.1000    0.1100    0.1200    0.1300    0.1400    0.1500
    0.1600    0.1700    0.1800    0.1900    0.2000    0.2100    0.2200    0.2300
    0.2400    0.2500    0.2600    0.2700    0.2800    0.2900    0.3000    0.3100
    0.3200    0.3300    0.3400    0.3500    0.3600    0.3700    0.3800    0.3900
    0.4000    0.4100    0.4200    0.4300    0.4400    0.4500    0.4600    0.4700
    0.4800    0.4900    0.5000    0.5100    0.5200    0.5300    0.5400    0.5500
    0.5600    0.5700    0.5800    0.5900    0.6000    0.6100    0.6200    0.6300
    0.6400    0.6500    0.6600    0.6700    0.6800    0.6900    0.7000    0.7100
    0.7200    0.7300    0.7400    0.7500    0.7600    0.7700    0.7800    0.7900
    0.8000    0.8100    0.8200    0.8300    0.8400    0.8500    0.8600    0.8700
    0.8800    0.8900    0.9000    0.9100    0.9200    0.9300    0.9400    0.9500
    0.9600    0.9700    0.9800    0.9900    1.0000    1.0100    1.0200    1.0300
    1.0400    1.0500    1.0600    1.0700    1.0800    1.0900    1.1000    1.1100
    1.1200    1.1300    1.1400    1.1500    1.1600    1.1700    1.1800    1.1900
    1.2000    1.2100    1.2200    1.2300    1.2400    1.2500    1.2600    1.2700
    1.2800    1.2900    1.3000    1.3100    1.3200    1.3300    1.3400    1.3500
    1.3600    1.3700    1.3800    1.3900    1.4000    1.4100    1.4200    1.4300
    1.4400    1.4500    1.4600    1.4700    1.4800    1.4900    1.5000    1.5100
    1.5200    1.5300    1.5400    1.5500    1.5600    1.5700    1.5800    1.5900
    1.6000    1.6100    1.6200    1.6300    1.6400    1.6500    1.6600    1.6700
    1.6800    1.6900    1.7000    1.7100    1.7200    1.7300    1.7400    1.7500
    1.7600    1.7700    1.7800    1.7900    1.8000    1.8100    1.8200    1.8300
    1.8400    1.8500    1.8600    1.8700    1.8800    1.8900    1.9000    1.9100
    1.9200    1.9300    1.9400    1.9500    1.9600    1.9700    1.9800    1.9900
    2.0000    2.0100    2.0200    2.0300    2.0400    2.0500    2.0600    2.0700
    2.0800    2.0900    2.1000    2.1100    2.1200    2.1300    2.1400    2.1500
    2.1600    2.1700    2.1800    2.1900    2.2000    2.2100    2.2200    2.2300
    2.2400    2.2500    2.2600    2.2700    2.2800    2.2900    2.3000    2.3100
    2.3200    2.3300    2.3400    2.3500    2.3600    2.3700    2.3800    2.3900
    2.4000    2.4100    2.4200    2.4300    2.4400    2.4500    2.4600    2.4700
    2.4800    2.4900    2.5000    2.5100    2.5200    2.5300    2.5400    2.5500
    2.5600    2.5700    2.5800    2.5900    2.6000    2.6100    2.6200    2.6300
    2.6400    2.6500    2.6600    2.6700    2.6800    2.6900    2.7000    2.7100
    2.7200    2.7300    2.7400    2.7500    2.7600    2.7700    2.7800    2.7900
    2.8000    2.8100    2.8200    2.8300    2.8400    2.8500    2.8600    2.8700
    2.8800    2.8900    2.9000    2.9100    2.9200    2.9300    2.9400    2.9500
    2.9600    2.9700    2.9800    2.9900    3.0000    3.0100    3.0200    3.0300
    3.0400    3.0500    3.0600    3.0700    3.0800    3.0900    3.1000    3.1100
    3.1200    3.1300    3.1400    3.1500    3.1600    3.1700    3.1800    3.1900
    3.2000    3.2100    3.2200    3.2300    3.2400    3.2500    3.2600    3.2700
    3.2800    3.2900    3.3000    3.3100    3.3200    3.3300    3.3400    3.3500
    3.3600    3.3700    3.3800    3.3900    3.4000    3.4100    3.4200    3.4300
    3.4400    3.4500    3.4600    3.4700    3.4800    3.4900    3.5000    3.5100
    3.5200    3.5300    3.5400    3.5500    3.5600    3.5700    3.5800    3.5900
    3.6000    3.6100    3.6200    3.6300    3.6400    3.6500    3.6600    3.6700
    3.6800    3.6900    3.7000    3.7100    3.7200    3.7300    3.7400    3.7500
    3.7600    3.7700    3.7800    3.7900    3.8000    3.8100    3.8200    3.8300
    3.8400    3.8500    3.8600    3.8700    3.8800    3.8900    3.9000    3.9100
    3.9200    3.9300    3.9400    3.9500    3.9600    3.9700    3.9800    3.9900
    4.0000    4.0100    4.0200    4.0300    4.0400    4.0500    4.0600    4.0700
    4.0800    4.0900    4.1000    4.1100    4.1200    4.1300    4.1400    4.1500
    4.1600    4.1700    4.1800    4.1900    4.2000    4.2100    4.2200    4.2300
    4.2400    4.2500    4.2600    4.2700    4.2800    4.2900    4.3000    4.3100
    4.3200    4.3300    4.3400    4.3500    4.3600    4.3700    4.3800    4.3900
    4.4000    4.4100    4.4200    4.4300    4.4400    4.4500    4.4600    4.4700
    4.4800    4.4900    4.5000    4.5100    4.5200    4.5300    4.5400    4.5500
    4.5600    4.5700    4.5800    4.5900    4.6000    4.6100    4.6200    4.6300
    4.6400    4.6500    4.6600    4.6700    4.6800    4.6900    4.7000    4.7100
    4.7200    4.7300    4.7400    4.7500    4.7600    4.7700    4.7800    4.7900
    4.8000    4.8100    4.8200    4.8300    4.8400    4.8500    4.8600    4.8700
    4.8800    4.8900    4.9000    4.9100    4.9200    4.9300    4.9400    4.9500
    4.9600    4.9700    4.9800    4.9900    5.0000    5.0100    5.0200    5.0300
    5.0400    5.0500    5.0600    5.0700    5.0800    5.0900    5.1000    5.1100
    5.1200    5.1300    5.1400    5.1500    5.1600    5.1700    5.1800    5.1900
    5.2000    5.2100    5.2200    5.2300    5.2400    5.2500    5.2600    5.2700
    5.2800    5.2900    5.3000    5.3100    5.3200    5.3300    5.3400    5.3500
    5.3600    5.3700    5.3800    5.3900    5.4000    5.4100    5.4200    5.4300
    5.4400    5.4500    5.4600    5.4700    5.4800    5.4900    5.5000    5.5100
    5.5200    5.5300    5.5400    5.5500    5.5600    5.5700    5.5800    5.5900
    5.6000    5.6100    5.6200    5.6300    5.6400    5.6500    5.6600    5.6700
    5.6800    5.6900    5.7000    5.7100    5.7200    5.7300    5.7400    5.7500
    5.7600    5.7700    5.7800    5.7900    5.8000    5.8100    5.8200    5.8300
    5.8400    5.8500    5.8600    5.8700    5.8800    5.8900    5.9000    5.9100
    5.9200    5.9300    5.9400    5.9500    5.9600    5.9700    5.9800    5.9900
    6.0000    6.0100    6.0200    6.0300    6.0400    6.0500    6.0600    6.0700
    6.0800    6.0900    6.1000    6.1100    6.1200    6.1300    6.1400    6.1500
    6.1600    6.1700    6.1800    6.1900    6.2000    6.2100    6.2200    6.2300
    6.2400    6.2500    6.2600    6.2700    6.2800    6.2900    6.3000    6.3100
    6.3200    6.3300    6.3400    6.3500    6.3600    6.3700    6.3800    6.3900
    6.4000    6.4100    6.4200    6.4300    6.4400    6.4500    6.4600    6.4700
    6.4800    6.4900    6.5000    6.5100    6.5200    6.5300    6.5400    6.5500
    6.5600    6.5700    6.5800    6.5900    6.6000    6.6100    6.6200    6.6300
    6.6400    6.6500    6.6600    6.6700    6.6800    6.6900    6.7000    6.7100
    6.7200    6.7300    6.7400    6.7500    6.7600    6.7700    6.7800    6.7900
    6.8000    6.8100    6.8200    6.8300    6.8400    6.8500    6.8600    6.8700
    6.8800    6.8900    6.9000    6.9100    6.9200    6.9300    6.9400    6.9500
    6.9600    6.9700    6.9800    6.9900    7.0000    7.0100    7.0200    7.0300
    7.0400    7.0500    7.0600    7.0700    7.0800    7.0900    7.1000    7.1100
    7.1200    7.1300    7.1400    7.1500    7.1600    7.1700    7.1800    7.1900
    7.2000    7.2100    7.2200    7.2300    7.2400    7.2500    7.2600    7.2700
    7.2800    7.2900    7.3000    7.3100    7.3200    7.3300    7.3400    7.3500
    7.3600    7.3700    7.3800    7.3900    7.4000    7.4100    7.4200    7.4300
    7.4400    7.4500    7.4600    7.4700    7.4800    7.4900    7.5000    7.5100
    7.5200    7.5300    7.5400    7.5500    7.5600    7.5700    7.5800    7.5900
    7.6000    7.6100    7.6200    7.6300    7.6400    7.6500    7.6600    7.6700
    7.6800    7.6900    7.7000    7.7100    7.7200    7.7300    7.7400    7.7500
    7.7600    7.7700    7.7800    7.7900    7.8000    7.8100    7.8200    7.8300
    7.8400    7.8500    7.8600    7.8700    7.8800    7.8900    7.9000    7.9100
    7.9200    7.9300    7.9400    7.9500    7.9600    7.9700    7.9800    7.9900
    8.0000    8.0100    8.0200    8.0300    8.0400    8.0500    8.0600    8.0700
    8.0800    8.0900    8.1000    8.1100    8.1200    8.1300    8.1400    8.1500
    8.1600    8.1700    8.1800    8.1900    8.2000    8.2100    8.2200    8.2300
    8.2400    8.2500    8.2600    8.2700    8.2800    8.2900    8.3000    8.3100
   </PP_R>
   <PP_RAB type="real"  size=" 832" columns="8">
    0.0100    0.0100    0.0100    0.0100    0.0100    0.0100    0.0100    0.0100
    0.0100    0.0100    0.0100    0.0100    0.0100    0.0100    0.0100    0.0100
    0.0100    0.0100    0.0100    0.0100    0.0100    0.0100    0.0100    0.0100
    0.0100    0.0100    0.0100    0.0100    0.0100    0.0100    0.0100    0.0100
    0.0100    0.0100    0.0100    0.0100    0.0100    0.0100    0.0100    0.0100
    0.0100    0.0100    0.0100    0.0100    0.0100    0.0100    0.0100    0.0100
    0.0100    0.0100    0.0100    0.0100    0.0100    0.0100    0.0100    0.0100
    0.0100    0.0100    0.0100    0.0100    0.0100    0.0100    0.0100    0.0100
    0.0100    0.0100    0.0100    0.0100    0.0100    0.0100    0.0100    0.0100
    0.0100    0.0100    0.0100    0.0100    0.0100    0.0100    0.0100    0.0100
    0.0100    0.0100    0.0100    0.0100    0.0100    0.0100    0.0100    0.0100
    0.0100    0.0100    0.0100    0.0100    0.0100    0.0100    0.0100    0.0100
    0.0100    0.0100    0.0100    0.0100    0.0100    0.0100    0.0100    0.0100
    0.0100    0.0100    0.0100    0.0100    0.0100    0.0100    0.0100    0.0100
    0.0100    0.0100    0.0100    0.0100    0.0100    0.0100    0.0100    0.0100
    0.0100    0.0100    0.0100    0.0100    0.0100    0.0100    0.0100    0.0100
    0.0100    0.0100    0.0100    0.0100    0.0100    0.0100    0.0100    0.0100
    0.0100    0.0100    0.0100    0.0100    0.0100    0.0100    0.0100    0.0100
    0.0100    0.0100    0.0100    0.0100    0.0100    0.0100    0.0100    0.0100
    0.0100    0.0100    0.0100    0.0100    0.0100    0.0100    0.0100    0.0100
    0.0100    0.0100    0.0100    0.0100    0.0100    0.0100    0.0100    0.0100
    0.0100    0.0100    0.0100    0.0100    0.0100    0.0100    0.0100    0.0100
    0.0100    0.0100    0.0100    0.0100    0.0100    0.0100    0.0100    0.0100
    0.0100    0.0100    0.0100    0.0100    0.0100    0.0100    0.0100    0.0100
    0.0100    0.0100    0.0100    0.0100    0.0100    0.0100    0.0100    0.0100
    0.0100    0.0100    0.0100    0.0100    0.0100    0.0100    0.0100    0.0100
    0.0100    0.0100    0.0100    0.0100    0.0100    0.0100    0.0100    0.0100
    0.0100    0.0100    0.0100    0.0100    0.0100    0.0100    0.0100    0.0100
    0.0100    0.0100    0.0100    0.0100    0.0100    0.0100    0.0100    0.0100
    0.0100    0.0100    0.0100    0.0100    0.0100    0.0100    0.0100    0.0100
    0.0100    0.0100    0.0100    0.0100    0.0100    0.0100    0.0100    0.0100
    0.0100    0.0100    0.0100    0.0100    0.0100    0.0100    0.0100    0.0100
    0.0100    0.0100    0.0100    0.0100    0.0100    0.0100    0.0100    0.0100
    0.0100    0.0100    0.0100    0.0100    0.0100    0.0100    0.0100    0.0100
    0.0100    0.0100    0.0100    0.0100    0.0100    0.0100    0.0100    0.0100
    0.0100    0.0100    0.0100    0.0100    0.0100    0.0100    0.0100    0.0100
    0.0100    0.0100    0.0100    0.0100    0.0100    0.0100    0.0100    0.0100
    0.0100    0.0100    0.0100    0.0100    0.0100    0.0100    0.0100    0.0100
    0.0100    0.0100    0.0100    0.0100    0.0100    0.0100    0.0100    0.0100
    0.0100    0.0100    0.0100    0.0100    0.0100    0.0100    0.0100    0.0100
    0.0100    0.0100    0.0100    0.0100    0.0100    0.0100    0.0100    0.0100
    0.0100    0.0100    0.0100    0.0100    0.0100    0.0100    0.0100    0.0100
    0.0100    0.0100    0.0100    0.0100    0.0100    0.0100    0.0100    0.0100
    0.0100    0.0100    0.0100    0.0100    0.0100    0.0100    0.0100    0.0100
    0.0100    0.0100    0.0100    0.0100    0.0100    0.0100    0.0100    0.0100
    0.0100    0.0100    0.0100    0.0100    0.0100    0.0100    0.0100    0.0100
    0.0100    0.0100    0.0100    0.0100    0.0100    0.0100    0.0100    0.0100
    0.0100    0.0100    0.0100    0.0100    0.0100    0.0100    0.0100    0.0100
    0.0100    0.0100    0.0100    0.0100    0.0100    0.0100    0.0100    0.0100
    0.0100    0.0100    0.0100    0.0100    0.0100    0.0100    0.0100    0.0100
    0.0100    0.0100    0.0100    0.0100    0.0100    0.0100    0.0100    0.0100
    0.0100    0.0100    0.0100    0.0100    0.0100    0.0100    0.0100    0.0100
    0.0100    0.0100    0.0100    0.0100    0.0100    0.0100    0.0100    0.0100
    0.0100    0.0100    0.0100    0.0100    0.0100    0.0100    0.0100    0.0100
    0.0100    0.0100    0.0100    0.0100    0.0100    0.0100    0.0100    0.0100
    0.0100    0.0100    0.0100    0.0100    0.0100    0.0100    0.0100    0.0100
    0.0100    0.0100    0.0100    0.0100    0.0100    0.0100    0.0100    0.0100
    0.0100    0.0100    0.0100    0.0100    0.0100    0.0100    0.0100    0.0100
    0.0100    0.0100    0.0100    0.0100    0.0100    0.0100    0.0100    0.0100
    0.0100    0.0100    0.0100    0.0100    0.0100    0.0100    0.0100    0.0100
    0.0100    0.0100    0.0100    0.0100    0.0100    0.0100    0.0100    0.0100
    0.0100    0.0100    0.0100    0.0100    0.0100    0.0100    0.0100    0.0100
    0.0100    0.0100    0.0100    0.0100    0.0100    0.0100    0.0100    0.0100
    0.0100    0.0100    0.0100    0.0100    0.0100    0.0100    0.0100    0.0100
    0.0100    0.0100    0.0100    0.0100    0.0100    0.0100    0.0100    0.0100
    0.0100    0.0100    0.0100    0.0100    0.0100    0.0100    0.0100    0.0100
    0.0100    0.0100    0.0100    0.0100    0.0100    0.0100    0.0100    0.0100
    0.0100    0.0100    0.0100    0.0100    0.0100    0.0100    0.0100    0.0100
    0.0100    0.0100    0.0100    0.0100    0.0100    0.0100    0.0100    0.0100
    0.0100    0.0100    0.0100    0.0100    0.0100    0.0100    0.0100    0.0100
    0.0100    0.0100    0.0100    0.0100    0.0100    0.0100    0.0100    0.0100
    0.0100    0.0100    0.0100    0.0100    0.0100    0.0100    0.0100    0.0100
    0.0100    0.0100    0.0100    0.0100    0.0100    0.0100    0.0100    0.0100
    0.0100    0.0100    0.0100    0.0100    0.0100    0.0100    0.0100    0.0100
    0.0100    0.0100    0.0100    0.0100    0.0100    0.0100    0.0100    0.0100
    0.0100    0.0100    0.0100    0.0100    0.0100    0.0100    0.0100    0.0100
    0.0100    0.0100    0.0100    0.0100    0.0100    0.0100    0.0100    0.0100
    0.0100    0.0100    0.0100    0.0100    0.0100    0.0100    0.0100    0.0100
    0.0100    0.0100    0.0100    0.0100    0.0100    0.0100    0.0100    0.0100
    0.0100    0.0100    0.0100    0.0100    0.0100    0.0100    0.0100    0.0100
    0.0100    0.0100    0.0100    0.0100    0.0100    0.0100    0.0100    0.0100
    0.0100    0.0100    0.0100    0.0100    0.0100    0.0100    0.0100    0.0100
    0.0100    0.0100    0.0100    0.0100    0.0100    0.0100    0.0100    0.0100
    0.0100    0.0100    0.0100    0.0100    0.0100    0.0100    0.0100    0.0100
    0.0100    0.0100    0.0100    0.0100    0.0100    0.0100    0.0100    0.0100
    0.0100    0.0100    0.0100    0.0100    0.0100    0.0100    0.0100    0.0100
    0.0100    0.0100    0.0100    0.0100    0.0100    0.0100    0.0100    0.0100
    0.0100    0.0100    0.0100    0.0100    0.0100    0.0100    0.0100    0.0100
    0.0100    0.0100    0.0100    0.0100    0.0100    0.0100    0.0100    0.0100
    0.0100    0.0100    0.0100    0.0100    0.0100    0.0100    0.0100    0.0100
    0.0100    0.0100    0.0100    0.0100    0.0100    0.0100    0.0100    0.0100
    0.0100    0.0100    0.0100    0.0100    0.0100    0.0100    0.0100    0.0100
    0.0100    0.0100    0.0100    0.0100    0.0100    0.0100    0.0100    0.0100
    0.0100    0.0100    0.0100    0.0100    0.0100    0.0100    0.0100    0.0100
    0.0100    0.0100    0.0100    0.0100    0.0100    0.0100    0.0100    0.0100
    0.0100    0.0100    0.0100    0.0100    0.0100    0.0100    0.0100    0.0100
    0.0100    0.0100    0.0100    0.0100    0.0100    0.0100    0.0100    0.0100
    0.0100    0.0100    0.0100    0.0100    0.0100    0.0100    0.0100    0.0100
    0.0100    0.0100    0.0100    0.0100    0.0100    0.0100    0.0100    0.0100
    0.0100    0.0100    0.0100    0.0100    0.0100    0.0100    0.0100    0.0100
    0.0100    0.0100    0.0100    0.0100    0.0100    0.0100    0.0100    0.0100
    0.0100    0.0100    0.0100    0.0100    0.0100    0.0100    0.0100    0.0100
    0.0100    0.0100    0.0100    0.0100    0.0100    0.0100    0.0100    0.0100
    0.0100    0.0100    0.0100    0.0100    0.0100    0.0100    0.0100    0.0100
   </PP_RAB>
 </PP_MESH>
  <PP_LOCAL type="real"  size=" 832" columns="4">
   -3.1756700367E+01   -3.1810171037E+01   -3.1959216930E+01   -3.2134115982E+01
   -3.2278642670E+01   -3.2364975990E+01   -3.2389727260E+01   -3.2361952379E+01
   -3.2294013147E+01   -3.2197099578E+01   -3.2079823306E+01   -3.1948249582E+01
   -3.1806419602E+01   -3.1656933006E+01   -3.1501434821E+01   -3.1340973660E+01
   -3.1176244882E+01   -3.1007745351E+01   -3.0835865935E+01   -3.0660942817E+01
   -3.0483283113E+01   -3.0303175389E+01   -3.0120892008E+01   -2.9936687509E+01
   -2.9750795408E+01   -2.9563424637E+01   -2.9374756103E+01   -2.9184939466E+01
   -2.8994090063E+01   -2.8802285914E+01   -2.8609564796E+01   -2.8415921517E+01
   -2.8221305682E+01   -2.8025620369E+01   -2.7828722247E+01   -2.7630423698E+01
   -2.7430497455E+01   -2.7228684116E+01   -2.7024702612E+01   -2.6818263383E+01
   -2.6609083615E+01   -2.6396903527E+01   -2.6181502437E+01   -2.5962713211E+01
   -2.5740433791E+01   -2.5514634773E+01   -2.5285362442E+01   -2.5052737167E+01
   -2.4816947600E+01   -2.4578241479E+01   -2.4336914155E+01   -2.4093295993E+01
   -2.3847739775E+01   -2.3600608999E+01   -2.3352267736E+01   -2.3103072401E+01
   -2.2853365586E+01   -2.2603471831E+01   -2.2353695158E+01   -2.2104318028E+01
   -2.1855601421E+01   -2.1607785709E+01   -2.1361092045E+01   -2.1115724042E+01
   -2.0871869544E+01   -2.0629702373E+01   -2.0389383955E+01   -2.0151064773E+01
   -1.9914885609E+01   -1.9680978586E+01   -1.9449467995E+01   -1.9220470942E+01
   -1.8994097813E+01   -1.8770452595E+01   -1.8549633069E+01   -1.8331730895E+01
   -1.8116831610E+01   -1.7905014550E+01   -1.7696352723E+01   -1.7490912634E+01
   -1.7288754075E+01   -1.7089929896E+01   -1.6894485754E+01   -1.6702459845E+01
   -1.6513882640E+01   -1.6328776605E+01   -1.6147155921E+01   -1.5969026201E+01
   -1.5794384210E+01   -1.5623217578E+01   -1.5455504514E+01   -1.5291213523E+01
   -1.5130303111E+01   -1.4972721493E+01   -1.4818406298E+01   -1.4667284263E+01
   -1.4519270929E+01   -1.4374270345E+01   -1.4232177978E+01   -1.4092890593E+01
   -1.3956309650E+01   -1.3822341173E+01   -1.3690895576E+01   -1.3561887505E+01
   -1.3435235672E+01   -1.3310862696E+01   -1.3188694954E+01   -1.3068662426E+01
   -1.2950698550E+01   -1.2834740081E+01   -1.2720726953E+01   -1.2608602146E+01
   -1.2498311557E+01   -1.2389803879E+01   -1.2283030479E+01   -1.2177945287E+01
   -1.2074504685E+01   -1.1972667398E+01   -1.1872394395E+01   -1.1773648784E+01
   -1.1676395714E+01   -1.1580602276E+01   -1.1486237404E+01   -1.1393271774E+01
   -1.1301677702E+01   -1.1211429042E+01   -1.1122501077E+01   -1.1034870410E+01
   -1.0948514853E+01   -1.0863413307E+01   -1.0779545649E+01   -1.0696892609E+01
   -1.0615435651E+01   -1.0535156852E+01   -1.0456038783E+01   -1.0378064397E+01
   -1.0301216915E+01   -1.0225479724E+01   -1.0150836278E+01   -1.0077270017E+01
   -1.0004764289E+01   -9.9333022840E+00   -9.8628669907E+00   -9.7934411564E+00
   -9.7250072679E+00   -9.6575475449E+00   -9.5910439478E+00   -9.5254781995E+00
   -9.4608318198E+00   -9.3970861709E+00   -9.3342225104E+00   -9.2722220495E+00
   -9.2110660382E+00   -9.1507358511E+00   -9.0912130333E+00   -9.0324793855E+00
   -8.9745170366E+00   -8.9173085119E+00   -8.8608367928E+00   -8.8050854290E+00
   -8.7500386738E+00   -8.6956814365E+00   -8.6419992414E+00   -8.5889782685E+00
   -8.5366053330E+00   -8.4848678705E+00   -8.4337539171E+00   -8.3832521017E+00
   -8.3333515079E+00   -8.2840414664E+00   -8.2353115464E+00   -8.1871515727E+00
   -8.1395516038E+00   -8.0925019287E+00   -8.0459930593E+00   -8.0000157245E+00
   -7.9545608640E+00   -7.9096196222E+00   -7.8651833424E+00   -7.8212435615E+00
   -7.7777920044E+00   -7.7348205788E+00   -7.6923213704E+00   -7.6502866379E+00
   -7.6087088081E+00   -7.5675804718E+00   -7.5268943788E+00   -7.4866434345E+00
   -7.4468206946E+00   -7.4074193624E+00   -7.3684327839E+00   -7.3298544446E+00
   -7.2916779657E+00   -7.2538971005E+00   -7.2165057313E+00   -7.1794978657E+00
   -7.1428676338E+00   -7.1066092846E+00   -7.0707171836E+00   -7.0351858094E+00
   -7.0000097511E+00   -6.9651837052E+00   -6.9307024737E+00   -6.8965609606E+00
   -6.8627541701E+00   -6.8292772038E+00   -6.7961252583E+00   -6.7632936231E+00
   -6.7307776785E+00   -6.6985728928E+00   -6.6666748209E+00   -6.6350791020E+00
   -6.6037814574E+00   -6.5727776889E+00   -6.5420636767E+00   -6.5116353776E+00
   -6.4814888234E+00   -6.4516201190E+00   -6.4220254408E+00   -6.3927010348E+00
   -6.3636432157E+00   -6.3348483645E+00   -6.3063129276E+00   -6.2780334151E+00
   -6.2500063994E+00   -6.2222285139E+00   -6.1946964516E+00   -6.1674069636E+00
   -6.1403568584E+00   -6.1135429989E+00   -6.0869623049E+00   -6.0606117496E+00
   -6.0344883535E+00   -6.0085891931E+00   -5.9829113950E+00   -5.9574521322E+00
   -5.9322086268E+00   -5.9071781478E+00   -5.8823580099E+00   -5.8577455728E+00
   -5.8333382404E+00   -5.8091334593E+00   -5.7851287186E+00   -5.7613215488E+00
   -5.7377095205E+00   -5.7142902444E+00   -5.6910613698E+00   -5.6680205841E+00
   -5.6451656120E+00   -5.6224942149E+00   -5.6000041897E+00   -5.5776933688E+00
   -5.5555596187E+00   -5.5336008397E+00   -5.5118149653E+00   -5.4901999613E+00
   -5.4687538252E+00   -5.4474745860E+00   -5.4263603028E+00   -5.4054090650E+00
   -5.3846189913E+00   -5.3639882293E+00   -5.3435149547E+00   -5.3231973711E+00
   -5.3030337093E+00   -5.2830222268E+00   -5.2631612072E+00   -5.2434489600E+00
   -5.2238838197E+00   -5.2044641459E+00   -5.1851883221E+00   -5.1660547559E+00
   -5.1470618784E+00   -5.1282081434E+00   -5.1094920276E+00   -5.0909120295E+00
   -5.0724666697E+00   -5.0541544900E+00   -5.0359740531E+00   -5.0179239425E+00
   -5.0000027619E+00   -4.9822091346E+00   -4.9645417039E+00   -4.9469991318E+00
   -4.9295800995E+00   -4.9122833065E+00   -4.8951074706E+00   -4.8780513275E+00
   -4.8611136303E+00   -4.8442931494E+00   -4.8275886723E+00   -4.8109990031E+00
   -4.7945229622E+00   -4.7781593862E+00   -4.7619071275E+00   -4.7457650540E+00
   -4.7297320490E+00   -4.7138070107E+00   -4.6979888523E+00   -4.6822765014E+00
   -4.6666688999E+00   -4.6511650037E+00   -4.6357637827E+00   -4.6204642203E+00
   -4.6052653133E+00   -4.5901660716E+00   -4.5751655180E+00   -4.5602626883E+00
   -4.5454566305E+00   -4.5307464052E+00   -4.5161310848E+00   -4.5016097539E+00
   -4.4871815088E+00   -4.4728454572E+00   -4.4586007183E+00   -4.4444464225E+00
   -4.4303817111E+00   -4.4164057363E+00   -4.4025176609E+00   -4.3887166584E+00
   -4.3750019124E+00   -4.3613726168E+00   -4.3478279754E+00   -4.3343672020E+00
   -4.3209895199E+00   -4.3076941623E+00   -4.2944803715E+00   -4.2813473992E+00
   -4.2682945062E+00   -4.2553209622E+00   -4.2424260460E+00   -4.2296090448E+00
   -4.2168692547E+00   -4.2042059800E+00   -4.1916185334E+00   -4.1791062360E+00
   -4.1666684166E+00   -4.1543044123E+00   -4.1420135680E+00   -4.1297952361E+00
   -4.1176487769E+00   -4.1055735581E+00   -4.0935689547E+00   -4.0816343491E+00
   -4.0697691309E+00   -4.0579726966E+00   -4.0462444499E+00   -4.0345838013E+00
   -4.0229901680E+00   -4.0114629739E+00   -4.0000016496E+00   -3.9886056321E+00
   -3.9772743648E+00   -3.9660072973E+00   -3.9548038857E+00   -3.9436635920E+00
   -3.9325858842E+00   -3.9215702365E+00   -3.9106161288E+00   -3.8997230468E+00
   -3.8888904819E+00   -3.8781179314E+00   -3.8674048977E+00   -3.8567508891E+00
   -3.8461554190E+00   -3.8356180063E+00   -3.8251381751E+00   -3.8147154548E+00
   -3.8043493797E+00   -3.7940394894E+00   -3.7837853282E+00   -3.7735864455E+00
   -3.7634423956E+00   -3.7533527373E+00   -3.7433170345E+00   -3.7333348554E+00
   -3.7234057731E+00   -3.7135293649E+00   -3.7037052129E+00   -3.6939329033E+00
   -3.6842120270E+00   -3.6745421789E+00   -3.6649229583E+00   -3.6553539686E+00
   -3.6458348174E+00   -3.6363651164E+00   -3.6269444811E+00   -3.6175725313E+00
   -3.6082488905E+00   -3.5989731862E+00   -3.5897450495E+00   -3.5805641156E+00
   -3.5714300232E+00   -3.5623424147E+00   -3.5533009362E+00   -3.5443052374E+00
   -3.5353549713E+00   -3.5264497947E+00   -3.5175893677E+00   -3.5087733539E+00
   -3.5000014202E+00   -3.4912732367E+00   -3.4825884770E+00   -3.4739468178E+00
   -3.4653479391E+00   -3.4567915240E+00   -3.4482772587E+00   -3.4398048325E+00
   -3.4313739378E+00   -3.4229842699E+00   -3.4146355272E+00   -3.4063274110E+00
   -3.3980596254E+00   -3.3898318775E+00   -3.3816438772E+00   -3.3734953371E+00
   -3.3653859726E+00   -3.3573155019E+00   -3.3492836459E+00   -3.3412901281E+00
   -3.3333346747E+00   -3.3254170143E+00   -3.3175368784E+00   -3.3096940008E+00
   -3.3018881178E+00   -3.2941189685E+00   -3.2863862939E+00   -3.2786898380E+00
   -3.2710293467E+00   -3.2634045687E+00   -3.2558152548E+00   -3.2482611580E+00
   -3.2407420339E+00   -3.2332576402E+00   -3.2258077367E+00   -3.2183920856E+00
   -3.2110104513E+00   -3.2036626001E+00   -3.1963483007E+00   -3.1890673239E+00
   -3.1818194424E+00   -3.1746044311E+00   -3.1674220669E+00   -3.1602721286E+00
   -3.1531543973E+00   -3.1460686558E+00   -3.1390146888E+00   -3.1319922832E+00
   -3.1250012277E+00   -3.1180413126E+00   -3.1111123305E+00   -3.1042140755E+00
   -3.0973463438E+00   -3.0905089332E+00   -3.0837016433E+00   -3.0769242755E+00
   -3.0701766330E+00   -3.0634585207E+00   -3.0567697450E+00   -3.0501101144E+00
   -3.0434794386E+00   -3.0368775293E+00   -3.0303041997E+00   -3.0237592645E+00
   -3.0172425403E+00   -3.0107538450E+00   -3.0042929981E+00   -2.9978598208E+00
   -2.9914541357E+00   -2.9850757669E+00   -2.9787245401E+00   -2.9724002824E+00
   -2.9661028224E+00   -2.9598319901E+00   -2.9535876170E+00   -2.9473695359E+00
   -2.9411775813E+00   -2.9350115887E+00   -2.9288713952E+00   -2.9227568393E+00
   -2.9166677606E+00   -2.9106040004E+00   -2.9045654010E+00   -2.8985518061E+00
   -2.8925630607E+00   -2.8865990112E+00   -2.8806595051E+00   -2.8747443912E+00
   -2.8688535196E+00   -2.8629867415E+00   -2.8571439094E+00   -2.8513248770E+00
   -2.8455294993E+00   -2.8397576321E+00   -2.8340091329E+00   -2.8282838598E+00
   -2.8225816726E+00   -2.8169024318E+00   -2.8112459991E+00   -2.8056122375E+00
   -2.8000010110E+00   -2.7944121845E+00   -2.7888456243E+00   -2.7833011975E+00
   -2.7777787724E+00   -2.7722782183E+00   -2.7667994054E+00   -2.7613422053E+00
   -2.7559064902E+00   -2.7504921334E+00   -2.7450990095E+00   -2.7397269936E+00
   -2.7343759622E+00   -2.7290457925E+00   -2.7237363627E+00   -2.7184475521E+00
   -2.7131792408E+00   -2.7079313097E+00   -2.7027036409E+00   -2.6974961173E+00
   -2.6923086226E+00   -2.6871410415E+00   -2.6819932596E+00   -2.6768651632E+00
   -2.6717566397E+00   -2.6666675773E+00   -2.6615978649E+00   -2.6565473924E+00