<UPF version="2.0.1">
  <PP_INFO>

 This pseudopotential file has been produced using the code
 ONCVPSP  (Optimized Norm-Conservinng Vanderbilt PSeudopotential)
 scalar-relativistic version 4.0.1 06/04/2019 by D. R. Hamann
 The code is available through a link at URL www.mat-simresearch.com.
 Documentation with the package provides a full discription of the
 input data below.


 While it is not required under the terms of the GNU GPL, it is
 suggested that you cite D. R. Hamann, Phys. Rev. B 88, 085117 (2013)
 in any publication using these pseudopotentials.

    <PP_INPUTFILE>
# ATOM AND REFERENCE CONFIGURATION
# atsym  z   nc   nv     iexc    psfile
  F  9.00    1    2       4      upf
#
#   n    l    f        energy (Ha)
    1    0    2.00
    2    0    2.00
    2    1    5.00
#
# PSEUDOPOTENTIAL AND OPTIMIZATION
# lmax
    1
#
#   l,   rc,      ep,       ncon, nbas, qcut
    0   1.56741   0.00000    5    8   8.73495
    1   1.64712   0.00000    5    8   8.69707
#
# LOCAL POTENTIAL
# lloc, lpopt,  rc(5),   dvloc0
    4    5   0.96222      0.00000
#
# VANDERBILT-KLEINMAN-BYLANDER PROJECTORs
# l, nproj, debl
    0    2   1.51125
    1    2   1.53167
#
# MODEL CORE CHARGE
# icmod, fcfact, rcfact
    0   0.00000   0.00000
#
# LOG DERIVATIVE ANALYSIS
# epsh1, epsh2, depsh
   -5.00    3.00    0.02
#
# OUTPUT GRID
# rlmax, drl
    6.00    0.01
#
# TEST CONFIGURATIONS
# ncnf
    0
# nvcnf
#   n    l    f
    </PP_INPUTFILE>
  </PP_INFO>
  <!--                               -->
  <!-- END OF HUMAN READABLE SECTION -->
  <!--                               -->
    <PP_HEADER
       generated="Generated using ONCVPSP code by D. R. Hamann"
       author="anonymous"
       date="220414"
       comment=""
       element="F "
       pseudo_type="NC"
       relativistic="scalar"
       is_ultrasoft="F"
       is_paw="F"
       is_coulomb="F"
       has_so="F"
       has_wfc="F"
       has_gipaw="F"
       core_correction="F"
       functional="PBE"
       z_valence="    7.00"
       total_psenergy="  -4.74861223153E+01"
       rho_cutoff="   8.33000000000E+00"
       l_max="1"
       l_local="-1"
       mesh_size="   834"
       number_of_wfc="2"
       number_of_proj="4"/>
 <PP_MESH>
   <PP_R type="real"  size=" 834" columns="8">
    0.0000    0.0100    0.0200    0.0300    0.0400    0.0500    0.0600    0.0700
    0.0800    0.0900    0.1000    0.1100    0.1200    0.1300    0.1400    0.1500
    0.1600    0.1700    0.1800    0.1900    0.2000    0.2100    0.2200    0.2300
    0.2400    0.2500    0.2600    0.2700    0.2800    0.2900    0.3000    0.3100
    0.3200    0.3300    0.3400    0.3500    0.3600    0.3700    0.3800    0.3900
    0.4000    0.4100    0.4200    0.4300    0.4400    0.4500    0.4600    0.4700
    0.4800    0.4900    0.5000    0.5100    0.5200    0.5300    0.5400    0.5500
    0.5600    0.5700    0.5800    0.5900    0.6000    0.6100    0.6200    0.6300
    0.6400    0.6500    0.6600    0.6700    0.6800    0.6900    0.7000    0.7100
    0.7200    0.7300    0.7400    0.7500    0.7600    0.7700    0.7800    0.7900
    0.8000    0.8100    0.8200    0.8300    0.8400    0.8500    0.8600    0.8700
    0.8800    0.8900    0.9000    0.9100    0.9200    0.9300    0.9400    0.9500
    0.9600    0.9700    0.9800    0.9900    1.0000    1.0100    1.0200    1.0300
    1.0400    1.0500    1.0600    1.0700    1.0800    1.0900    1.1000    1.1100
    1.1200    1.1300    1.1400    1.1500    1.1600    1.1700    1.1800    1.1900
    1.2000    1.2100    1.2200    1.2300    1.2400    1.2500    1.2600    1.2700
    1.2800    1.2900    1.3000    1.3100    1.3200    1.3300    1.3400    1.3500
    1.3600    1.3700    1.3800    1.3900    1.4000    1.4100    1.4200    1.4300
    1.4400    1.4500    1.4600    1.4700    1.4800    1.4900    1.5000    1.5100
    1.5200    1.5300    1.5400    1.5500    1.5600    1.5700    1.5800    1.5900
    1.6000    1.6100    1.6200    1.6300    1.6400    1.6500    1.6600    1.6700
    1.6800    1.6900    1.7000    1.7100    1.7200    1.7300    1.7400    1.7500
    1.7600    1.7700    1.7800    1.7900    1.8000    1.8100    1.8200    1.8300
    1.8400    1.8500    1.8600    1.8700    1.8800    1.8900    1.9000    1.9100
    1.9200    1.9300    1.9400    1.9500    1.9600    1.9700    1.9800    1.9900
    2.0000    2.0100    2.0200    2.0300    2.0400    2.0500    2.0600    2.0700
    2.0800    2.0900    2.1000    2.1100    2.1200    2.1300    2.1400    2.1500
    2.1600    2.1700    2.1800    2.1900    2.2000    2.2100    2.2200    2.2300
    2.2400    2.2500    2.2600    2.2700    2.2800    2.2900    2.3000    2.3100
    2.3200    2.3300    2.3400    2.3500    2.3600    2.3700    2.3800    2.3900
    2.4000    2.4100    2.4200    2.4300    2.4400    2.4500    2.4600    2.4700
    2.4800    2.4900    2.5000    2.5100    2.5200    2.5300    2.5400    2.5500
    2.5600    2.5700    2.5800    2.5900    2.6000    2.6100    2.6200    2.6300
    2.6400    2.6500    2.6600    2.6700    2.6800    2.6900    2.7000    2.7100
    2.7200    2.7300    2.7400    2.7500    2.7600    2.7700    2.7800    2.7900
    2.8000    2.8100    2.8200    2.8300    2.8400    2.8500    2.8600    2.8700
    2.8800    2.8900    2.9000    2.9100    2.9200    2.9300    2.9400    2.9500
    2.9600    2.9700    2.9800    2.9900    3.0000    3.0100    3.0200    3.0300
    3.0400    3.0500    3.0600    3.0700    3.0800    3.0900    3.1000    3.1100
    3.1200    3.1300    3.1400    3.1500    3.1600    3.1700    3.1800    3.1900
    3.2000    3.2100    3.2200    3.2300    3.2400    3.2500    3.2600    3.2700
    3.2800    3.2900    3.3000    3.3100    3.3200    3.3300    3.3400    3.3500
    3.3600    3.3700    3.3800    3.3900    3.4000    3.4100    3.4200    3.4300
    3.4400    3.4500    3.4600    3.4700    3.4800    3.4900    3.5000    3.5100
    3.5200    3.5300    3.5400    3.5500    3.5600    3.5700    3.5800    3.5900
    3.6000    3.6100    3.6200    3.6300    3.6400    3.6500    3.6600    3.6700
    3.6800    3.6900    3.7000    3.7100    3.7200    3.7300    3.7400    3.7500
    3.7600    3.7700    3.7800    3.7900    3.8000    3.8100    3.8200    3.8300
    3.8400    3.8500    3.8600    3.8700    3.8800    3.8900    3.9000    3.9100
    3.9200    3.9300    3.9400    3.9500    3.9600    3.9700    3.9800    3.9900
    4.0000    4.0100    4.0200    4.0300    4.0400    4.0500    4.0600    4.0700
    4.0800    4.0900    4.1000    4.1100    4.1200    4.1300    4.1400    4.1500
    4.1600    4.1700    4.1800    4.1900    4.2000    4.2100    4.2200    4.2300
    4.2400    4.2500    4.2600    4.2700    4.2800    4.2900    4.3000    4.3100
    4.3200    4.3300    4.3400    4.3500    4.3600    4.3700    4.3800    4.3900
    4.4000    4.4100    4.4200    4.4300    4.4400    4.4500    4.4600    4.4700
    4.4800    4.4900    4.5000    4.5100    4.5200    4.5300    4.5400    4.5500
    4.5600    4.5700    4.5800    4.5900    4.6000    4.6100    4.6200    4.6300
    4.6400    4.6500    4.6600    4.6700    4.6800    4.6900    4.7000    4.7100
    4.7200    4.7300    4.7400    4.7500    4.7600    4.7700    4.7800    4.7900
    4.8000    4.8100    4.8200    4.8300    4.8400    4.8500    4.8600    4.8700
    4.8800    4.8900    4.9000    4.9100    4.9200    4.9300    4.9400    4.9500
    4.9600    4.9700    4.9800    4.9900    5.0000    5.0100    5.0200    5.0300
    5.0400    5.0500    5.0600    5.0700    5.0800    5.0900    5.1000    5.1100
    5.1200    5.1300    5.1400    5.1500    5.1600    5.1700    5.1800    5.1900
    5.2000    5.2100    5.2200    5.2300    5.2400    5.2500    5.2600    5.2700
    5.2800    5.2900    5.3000    5.3100    5.3200    5.3300    5.3400    5.3500
    5.3600    5.3700    5.3800    5.3900    5.4000    5.4100    5.4200    5.4300
    5.4400    5.4500    5.4600    5.4700    5.4800    5.4900    5.5000    5.5100
    5.5200    5.5300    5.5400    5.5500    5.5600    5.5700    5.5800    5.5900
    5.6000    5.6100    5.6200    5.6300    5.6400    5.6500    5.6600    5.6700
    5.6800    5.6900    5.7000    5.7100    5.7200    5.7300    5.7400    5.7500
    5.7600    5.7700    5.7800    5.7900    5.8000    5.8100    5.8200    5.8300
    5.8400    5.8500    5.8600    5.8700    5.8800    5.8900    5.9000    5.9100
    5.9200    5.9300    5.9400    5.9500    5.9600    5.9700    5.9800    5.9900
    6.0000    6.0100    6.0200    6.0300    6.0400    6.0500    6.0600    6.0700
    6.0800    6.0900    6.1000    6.1100    6.1200    6.1300    6.1400    6.1500
    6.1600    6.1700    6.1800    6.1900    6.2000    6.2100    6.2200    6.2300
    6.2400    6.2500    6.2600    6.2700    6.2800    6.2900    6.3000    6.3100
    6.3200    6.3300    6.3400    6.3500    6.3600    6.3700    6.3800    6.3900
    6.4000    6.4100    6.4200    6.4300    6.4400    6.4500    6.4600    6.4700
    6.4800    6.4900    6.5000    6.5100    6.5200    6.5300    6.5400    6.5500
    6.5600    6.5700    6.5800    6.5900    6.6000    6.6100    6.6200    6.6300
    6.6400    6.6500    6.6600    6.6700    6.6800    6.6900    6.7000    6.7100
    6.7200    6.7300    6.7400    6.7500    6.7600    6.7700    6.7800    6.7900
    6.8000    6.8100    6.8200    6.8300    6.8400    6.8500    6.8600    6.8700
    6.8800    6.8900    6.9000    6.9100    6.9200    6.9300    6.9400    6.9500
    6.9600    6.9700    6.9800    6.9900    7.0000    7.0100    7.0200    7.0300
    7.0400    7.0500    7.0600    7.0700    7.0800    7.0900    7.1000    7.1100
    7.1200    7.1300    7.1400    7.1500    7.1600    7.1700    7.1800    7.1900
    7.2000    7.2100    7.2200    7.2300    7.2400    7.2500    7.2600    7.2700
    7.2800    7.2900    7.3000    7.3100    7.3200    7.3300    7.3400    7.3500
    7.3600    7.3700    7.3800    7.3900    7.4000    7.4100    7.4200    7.4300
    7.4400    7.4500    7.4600    7.4700    7.4800    7.4900    7.5000    7.5100
    7.5200    7.5300    7.5400    7.5500    7.5600    7.5700    7.5800    7.5900
    7.6000    7.6100    7.6200    7.6300    7.6400    7.6500    7.6600    7.6700
    7.6800    7.6900    7.7000    7.7100    7.7200    7.7300    7.7400    7.7500
    7.7600    7.7700    7.7800    7.7900    7.8000    7.8100    7.8200    7.8300
    7.8400    7.8500    7.8600    7.8700    7.8800    7.8900    7.9000    7.9100
    7.9200    7.9300    7.9400    7.9500    7.9600    7.9700    7.9800    7.9900
    8.0000    8.0100    8.0200    8.0300    8.0400    8.0500    8.0600    8.0700
    8.0800    8.0900    8.1000    8.1100    8.1200    8.1300    8.1400    8.1500
    8.1600    8.1700    8.1800    8.1900    8.2000    8.2100    8.2200    8.2300
    8.2400    8.2500    8.2600    8.2700    8.2800    8.2900    8.3000    8.3100
    8.3200    8.3300
   </PP_R>
   <PP_RAB type="real"  size=" 834" columns="8">
    0.0100    0.0100    0.0100    0.0100    0.0100    0.0100    0.0100    0.0100
    0.0100    0.0100    0.0100    0.0100    0.0100    0.0100    0.0100    0.0100
    0.0100    0.0100    0.0100    0.0100    0.0100    0.0100    0.0100    0.0100
    0.0100    0.0100    0.0100    0.0100    0.0100    0.0100    0.0100    0.0100
    0.0100    0.0100    0.0100    0.0100    0.0100    0.0100    0.0100    0.0100
    0.0100    0.0100    0.0100    0.0100    0.0100    0.0100    0.0100    0.0100
    0.0100    0.0100    0.0100    0.0100    0.0100    0.0100    0.0100    0.0100
    0.0100    0.0100    0.0100    0.0100    0.0100    0.0100    0.0100    0.0100
    0.0100    0.0100    0.0100    0.0100    0.0100    0.0100    0.0100    0.0100
    0.0100    0.0100    0.0100    0.0100    0.0100    0.0100    0.0100    0.0100
    0.0100    0.0100    0.0100    0.0100    0.0100    0.0100    0.0100    0.0100
    0.0100    0.0100    0.0100    0.0100    0.0100    0.0100    0.0100    0.0100
    0.0100    0.0100    0.0100    0.0100    0.0100    0.0100    0.0100    0.0100
    0.0100    0.0100    0.0100    0.0100    0.0100    0.0100    0.0100    0.0100
    0.0100    0.0100    0.0100    0.0100    0.0100    0.0100    0.0100    0.0100
    0.0100    0.0100    0.0100    0.0100    0.0100    0.0100    0.0100    0.0100
    0.0100    0.0100    0.0100    0.0100    0.0100    0.0100    0.0100    0.0100
    0.0100    0.0100    0.0100    0.0100    0.0100    0.0100    0.0100    0.0100
    0.0100    0.0100    0.0100    0.0100    0.0100    0.0100    0.0100    0.0100
    0.0100    0.0100    0.0100    0.0100    0.0100    0.0100    0.0100    0.0100
    0.0100    0.0100    0.0100    0.0100    0.0100    0.0100    0.0100    0.0100
    0.0100    0.0100    0.0100    0.0100    0.0100    0.0100    0.0100    0.0100
    0.0100    0.0100    0.0100    0.0100    0.0100    0.0100    0.0100    0.0100
    0.0100    0.0100    0.0100    0.0100    0.0100    0.0100    0.0100    0.0100
    0.0100    0.0100    0.0100    0.0100    0.0100    0.0100    0.0100    0.0100
    0.0100    0.0100    0.0100    0.0100    0.0100    0.0100    0.0100    0.0100
    0.0100    0.0100    0.0100    0.0100    0.0100    0.0100    0.0100    0.0100
    0.0100    0.0100    0.0100    0.0100    0.0100    0.0100    0.0100    0.0100
    0.0100    0.0100    0.0100    0.0100    0.0100    0.0100    0.0100    0.0100
    0.0100    0.0100    0.0100    0.0100    0.0100    0.0100    0.0100    0.0100
    0.0100    0.0100    0.0100    0.0100    0.0100    0.0100    0.0100    0.0100
    0.0100    0.0100    0.0100    0.0100    0.0100    0.0100    0.0100    0.0100
    0.0100    0.0100    0.0100    0.0100    0.0100    0.0100    0.0100    0.0100
    0.0100    0.0100    0.0100    0.0100    0.0100    0.0100    0.0100    0.0100
    0.0100    0.0100    0.0100    0.0100    0.0100    0.0100    0.0100    0.0100
    0.0100    0.0100    0.0100    0.0100    0.0100    0.0100    0.0100    0.0100
    0.0100    0.0100    0.0100    0.0100    0.0100    0.0100    0.0100    0.0100
    0.0100    0.0100    0.0100    0.0100    0.0100    0.0100    0.0100    0.0100
    0.0100    0.0100    0.0100    0.0100    0.0100    0.0100    0.0100    0.0100
    0.0100    0.0100    0.0100    0.0100    0.0100    0.0100    0.0100    0.0100
    0.0100    0.0100    0.0100    0.0100    0.0100    0.0100    0.0100    0.0100
    0.0100    0.0100    0.0100    0.0100    0.0100    0.0100    0.0100    0.0100
    0.0100    0.0100    0.0100    0.0100    0.0100    0.0100    0.0100    0.0100
    0.0100    0.0100    0.0100    0.0100    0.0100    0.0100    0.0100    0.0100
    0.0100    0.0100    0.0100    0.0100    0.0100    0.0100    0.0100    0.0100
    0.0100    0.0100    0.0100    0.0100    0.0100    0.0100    0.0100    0.0100
    0.0100    0.0100    0.0100    0.0100    0.0100    0.0100    0.0100    0.0100
    0.0100    0.0100    0.0100    0.0100    0.0100    0.0100    0.0100    0.0100
    0.0100    0.0100    0.0100    0.0100    0.0100    0.0100    0.0100    0.0100
    0.0100    0.0100    0.0100    0.0100    0.0100    0.0100    0.0100    0.0100
    0.0100    0.0100    0.0100    0.0100    0.0100    0.0100    0.0100    0.0100
    0.0100    0.0100    0.0100    0.0100    0.0100    0.0100    0.0100    0.0100
    0.0100    0.0100    0.0100    0.0100    0.0100    0.0100    0.0100    0.0100
    0.0100    0.0100    0.0100    0.0100    0.0100    0.0100    0.0100    0.0100
    0.0100    0.0100    0.0100    0.0100    0.0100    0.0100    0.0100    0.0100
    0.0100    0.0100    0.0100    0.0100    0.0100    0.0100    0.0100    0.0100
    0.0100    0.0100    0.0100    0.0100    0.0100    0.0100    0.0100    0.0100
    0.0100    0.0100    0.0100    0.0100    0.0100    0.0100    0.0100    0.0100
    0.0100    0.0100    0.0100    0.0100    0.0100    0.0100    0.0100    0.0100
    0.0100    0.0100    0.0100    0.0100    0.0100    0.0100    0.0100    0.0100
    0.0100    0.0100    0.0100    0.0100    0.0100    0.0100    0.0100    0.0100
    0.0100    0.0100    0.0100    0.0100    0.0100    0.0100    0.0100    0.0100
    0.0100    0.0100    0.0100    0.0100    0.0100    0.0100    0.0100    0.0100
    0.0100    0.0100    0.0100    0.0100    0.0100    0.0100    0.0100    0.0100
    0.0100    0.0100    0.0100    0.0100    0.0100    0.0100    0.0100    0.0100
    0.0100    0.0100    0.0100    0.0100    0.0100    0.0100    0.0100    0.0100
    0.0100    0.0100    0.0100    0.0100    0.0100    0.0100    0.0100    0.0100
    0.0100    0.0100    0.0100    0.0100    0.0100    0.0100    0.0100    0.0100
    0.0100    0.0100    0.0100    0.0100    0.0100    0.0100    0.0100    0.0100
    0.0100    0.0100    0.0100    0.0100    0.0100    0.0100    0.0100    0.0100
    0.0100    0.0100    0.0100    0.0100    0.0100    0.0100    0.0100    0.0100
    0.0100    0.0100    0.0100    0.0100    0.0100    0.0100    0.0100    0.0100
    0.0100    0.0100    0.0100    0.0100    0.0100    0.0100    0.0100    0.0100
    0.0100    0.0100    0.0100    0.0100    0.0100    0.0100    0.0100    0.0100
    0.0100    0.0100    0.0100    0.0100    0.0100    0.0100    0.0100    0.0100
    0.0100    0.0100    0.0100    0.0100    0.0100    0.0100    0.0100    0.0100
    0.0100    0.0100    0.0100    0.0100    0.0100    0.0100    0.0100    0.0100
    0.0100    0.0100    0.0100    0.0100    0.0100    0.0100    0.0100    0.0100
    0.0100    0.0100    0.0100    0.0100    0.0100    0.0100    0.0100    0.0100
    0.0100    0.0100    0.0100    0.0100    0.0100    0.0100    0.0100    0.0100
    0.0100    0.0100    0.0100    0.0100    0.0100    0.0100    0.0100    0.0100
    0.0100    0.0100    0.0100    0.0100    0.0100    0.0100    0.0100    0.0100
    0.0100    0.0100    0.0100    0.0100    0.0100    0.0100    0.0100    0.0100
    0.0100    0.0100    0.0100    0.0100    0.0100    0.0100    0.0100    0.0100
    0.0100    0.0100    0.0100    0.0100    0.0100    0.0100    0.0100    0.0100
    0.0100    0.0100    0.0100    0.0100    0.0100    0.0100    0.0100    0.0100
    0.0100    0.0100    0.0100    0.0100    0.0100    0.0100    0.0100    0.0100
    0.0100    0.0100    0.0100    0.0100    0.0100    0.0100    0.0100    0.0100
    0.0100    0.0100    0.0100    0.0100    0.0100    0.0100    0.0100    0.0100
    0.0100    0.0100    0.0100    0.0100    0.0100    0.0100    0.0100    0.0100
    0.0100    0.0100    0.0100    0.0100    0.0100    0.0100    0.0100    0.0100
    0.0100    0.0100    0.0100    0.0100    0.0100    0.0100    0.0100    0.0100
    0.0100    0.0100    0.0100    0.0100    0.0100    0.0100    0.0100    0.0100
    0.0100    0.0100    0.0100    0.0100    0.0100    0.0100    0.0100    0.0100
    0.0100    0.0100    0.0100    0.0100    0.0100    0.0100    0.0100    0.0100
    0.0100    0.0100    0.0100    0.0100    0.0100    0.0100    0.0100    0.0100
    0.0100    0.0100    0.0100    0.0100    0.0100    0.0100    0.0100    0.0100
    0.0100    0.0100    0.0100    0.0100    0.0100    0.0100    0.0100    0.0100
    0.0100    0.0100    0.0100    0.0100    0.0100    0.0100    0.0100    0.0100
    0.0100    0.0100    0.0100    0.0100    0.0100    0.0100    0.0100    0.0100
    0.0100    0.0100    0.0100    0.0100    0.0100    0.0100    0.0100    0.0100
    0.0100    0.0100    0.0100    0.0100    0.0100    0.0100    0.0100    0.0100
    0.0100    0.0100    0.0100    0.0100    0.0100    0.0100    0.0100    0.0100
    0.0100    0.0100    0.0100    0.0100    0.0100    0.0100    0.0100    0.0100
    0.0100    0.0100
   </PP_RAB>
 </PP_MESH>
  <PP_LOCAL type="real"  size=" 834" columns="4">
   -3.1688103850E+01   -3.1750028797E+01   -3.1904942685E+01   -3.2085665200E+01
   -3.2233809931E+01   -3.2321285395E+01   -3.2345425529E+01   -3.2316134549E+01
   -3.2246392694E+01   -3.2147745198E+01   -3.2028967294E+01   -3.1896173351E+01
   -3.1753395113E+01   -3.1603198618E+01   -3.1447190003E+01   -3.1286382735E+01
   -3.1121444116E+01   -3.0952850411E+01   -3.0780978354E+01   -3.0606155017E+01
   -3.0428681966E+01   -3.0248844558E+01   -3.0066913319E+01   -2.9883141624E+01
   -2.9697762026E+01   -2.9510982386E+01   -2.9322982242E+01   -2.9133909464E+01
   -2.8943877109E+01   -2.8752960350E+01   -2.8561193491E+01   -2.8368567176E+01
   -2.8175026096E+01   -2.7980467618E+01   -2.7784741896E+01   -2.7587654036E+01
   -2.7388968845E+01   -2.7188418540E+01   -2.6985713480E+01   -2.6780555685E+01
   -2.6572654437E+01   -2.6361742945E+01   -2.6147594731E+01   -2.5930038323E+01
   -2.5708968900E+01   -2.5484355857E+01   -2.5256245683E+01   -2.5024760110E+01
   -2.4790089969E+01   -2.4552485638E+01   -2.4312245218E+01   -2.4069701632E+01
   -2.3825209794E+01   -2.3579134753E+01   -2.3331841474E+01   -2.3083686608E+01
   -2.2835012356E+01   -2.2586142330E+01   -2.2337379182E+01   -2.2089003669E+01
   -2.1841274836E+01   -2.1594430980E+01   -2.1348691122E+01   -2.1104256746E+01
   -2.0861313625E+01   -2.0620033600E+01   -2.0380576241E+01   -2.0143090304E+01
   -1.9907714996E+01   -1.9674581014E+01   -1.9443811379E+01   -1.9215522078E+01
   -1.8989822530E+01   -1.8766815905E+01   -1.8546599315E+01   -1.8329263896E+01
   -1.8114894806E+01   -1.7903571147E+01   -1.7695365840E+01   -1.7490345450E+01
   -1.7288569978E+01   -1.7090092638E+01   -1.6894959607E+01   -1.6703209765E+01
   -1.6514874434E+01   -1.6329977103E+01   -1.6148533154E+01   -1.5970549588E+01
   -1.5796024748E+01   -1.5624948039E+01   -1.5457299651E+01   -1.5293050276E+01
   -1.5132160825E+01   -1.4974582143E+01   -1.4820254712E+01   -1.4669108359E+01
   -1.4521061949E+01   -1.4376023076E+01   -1.4233889478E+01   -1.4094558163E+01
   -1.3957930697E+01   -1.3823913219E+01   -1.3692416274E+01   -1.3563354651E+01
   -1.3436647217E+01   -1.3312216760E+01   -1.3189989831E+01   -1.3069896595E+01
   -1.2951870685E+01   -1.2835849055E+01   -1.2721771848E+01   -1.2609582260E+01
   -1.2499226410E+01   -1.2390653219E+01   -1.2283814291E+01   -1.2178663798E+01
   -1.2075158370E+01   -1.1973256988E+01   -1.1872920877E+01   -1.1774113410E+01
   -1.1676800001E+01   -1.1580948006E+01   -1.1486526623E+01   -1.1393506787E+01
   -1.1301861066E+01   -1.1211563555E+01   -1.1122589762E+01   -1.1034916498E+01
   -1.0948521759E+01   -1.0863384606E+01   -1.0779485043E+01   -1.0696803894E+01
   -1.0615322681E+01   -1.0535023498E+01   -1.0455888896E+01   -1.0377901759E+01
   -1.0301045201E+01   -1.0225302458E+01   -1.0150656797E+01   -1.0077091428E+01
   -1.0004589436E+01   -9.9331337232E+00   -9.8627069600E+00   -9.7932915598E+00
   -9.7248696627E+00   -9.6574231358E+00   -9.5909335879E+00   -9.5253823982E+00
   -9.4607507569E+00   -9.3970197163E+00   -9.3341702461E+00   -9.2721833051E+00
   -9.2110399384E+00   -9.1507213376E+00   -9.0912089056E+00   -9.0324843434E+00
   -8.9745297205E+00   -8.9173275393E+00   -8.8608608154E+00   -8.8051132336E+00
   -8.7500691962E+00   -8.6957137184E+00   -8.6420324831E+00   -8.5890118278E+00
   -8.5366387335E+00   -8.4849008036E+00   -8.4337862578E+00   -8.3832838634E+00
   -8.3333827132E+00   -8.2840721175E+00   -8.2353416576E+00   -8.1871811549E+00
   -8.1395806681E+00   -8.0925304856E+00   -8.0460211192E+00   -8.0000432975E+00
   -7.9545879598E+00   -7.9096462502E+00   -7.8652095118E+00   -7.8212692812E+00
   -7.7778172831E+00   -7.7348454250E+00   -7.6923457922E+00   -7.6503106433E+00
   -7.6087324048E+00   -7.5676036674E+00   -7.5269171807E+00   -7.4866658496E+00
   -7.4468427302E+00   -7.4074410251E+00   -7.3684540804E+00   -7.3298753813E+00
   -7.2916985490E+00   -7.2539173365E+00   -7.2165256260E+00   -7.1795174251E+00
   -7.1428868636E+00   -7.1066281905E+00   -7.0707357710E+00   -7.0352040838E+00
   -7.0000277176E+00   -6.9652013692E+00   -6.9307198402E+00   -6.8965780346E+00
   -6.8627709566E+00   -6.8292937074E+00   -6.7961414839E+00   -6.7633095754E+00
   -6.7307933619E+00   -6.6985883118E+00   -6.6666899801E+00   -6.6350940056E+00
   -6.6037961098E+00   -6.5727920943E+00   -6.5420778392E+00   -6.5116493014E+00
   -6.4815025126E+00   -6.4516335775E+00   -6.4220386725E+00   -6.3927140438E+00
   -6.3636560057E+00   -6.3348609393E+00   -6.3063252910E+00   -6.2780455708E+00
   -6.2500183511E+00   -6.2222402653E+00   -6.1947080061E+00   -6.1674183251E+00
   -6.1403680295E+00   -6.1135539839E+00   -6.0869731087E+00   -6.0606223725E+00
   -6.0344987997E+00   -6.0085994674E+00   -5.9829214997E+00   -5.9574620706E+00
   -5.9322184022E+00   -5.9071877633E+00   -5.8823674687E+00   -5.8577548780E+00
   -5.8333473950E+00   -5.8091424664E+00   -5.7851375813E+00   -5.7613302698E+00
   -5.7377181030E+00   -5.7142986912E+00   -5.6910696837E+00   -5.6680287680E+00
   -5.6451736687E+00   -5.6225021470E+00   -5.6000120001E+00   -5.5777010601E+00
   -5.5555671936E+00   -5.5336083008E+00   -5.5118223152E+00   -5.4902072025E+00
   -5.4687609603E+00   -5.4474816174E+00   -5.4263672330E+00   -5.4054158963E+00
   -5.3846257262E+00   -5.3639948700E+00   -5.3435215036E+00   -5.3232038304E+00
   -5.3030400812E+00   -5.2830285135E+00   -5.2631674109E+00   -5.2434550827E+00
   -5.2238898637E+00   -5.2044701130E+00   -5.1851942144E+00   -5.1660605754E+00
   -5.1470676270E+00   -5.1282138230E+00   -5.1094976400E+00   -5.0909175766E+00
   -5.0724721533E+00   -5.0541599118E+00   -5.0359794148E+00   -5.0179292459E+00
   -5.0000080085E+00   -4.9822143261E+00   -4.9645468418E+00   -4.9470042177E+00
   -4.9295851348E+00   -4.9122882928E+00   -4.8951124093E+00   -4.8780562199E+00
   -4.8611184778E+00   -4.8442979535E+00   -4.8275934342E+00   -4.8110037240E+00
   -4.7945276434E+00   -4.7781640289E+00   -4.7619117328E+00   -4.7457696231E+00
   -4.7297365830E+00   -4.7138115107E+00   -4.6979933193E+00   -4.6822809364E+00
   -4.6666733039E+00   -4.6511693778E+00   -4.6357681277E+00   -4.6204685371E+00
   -4.6052696028E+00   -4.5901703346E+00   -4.5751697554E+00   -4.5602669008E+00
   -4.5454608189E+00   -4.5307505702E+00   -4.5161352272E+00   -4.5016138743E+00
   -4.4871856079E+00   -4.4728495357E+00   -4.4586047768E+00   -4.4444504615E+00
   -4.4303857312E+00   -4.4164097381E+00   -4.4025216450E+00   -4.3887206252E+00
   -4.3750058624E+00   -4.3613765504E+00   -4.3478318931E+00   -4.3343711042E+00
   -4.3209934071E+00   -4.3076980348E+00   -4.2944842297E+00   -4.2813512434E+00
   -4.2682983367E+00   -4.2553247795E+00   -4.2424298503E+00   -4.2296128364E+00
   -4.2168730338E+00   -4.2042097469E+00   -4.1916222884E+00   -4.1791099792E+00
   -4.1666721484E+00   -4.1543081328E+00   -4.1420172773E+00   -4.1297989345E+00
   -4.1176524646E+00   -4.1055772351E+00   -4.0935726212E+00   -4.0816380053E+00
   -4.0697727768E+00   -4.0579763324E+00   -4.0462480758E+00   -4.0345874172E+00
   -4.0229937741E+00   -4.0114665702E+00   -4.0000052362E+00   -3.9886092091E+00
   -3.9772779322E+00   -3.9660108552E+00   -3.9548074340E+00   -3.9436671308E+00
   -3.9325894136E+00   -3.9215737564E+00   -3.9106196392E+00   -3.8997265478E+00
   -3.8888939735E+00   -3.8781214135E+00   -3.8674083704E+00   -3.8567543523E+00
   -3.8461588727E+00   -3.8356214506E+00   -3.8251416099E+00   -3.8147188800E+00
   -3.8043527953E+00   -3.7940428953E+00   -3.7837887244E+00   -3.7735898320E+00
   -3.7634457723E+00   -3.7533561043E+00   -3.7433203916E+00   -3.7333382026E+00
   -3.7234091103E+00   -3.7135326921E+00   -3.7037085300E+00   -3.6939362103E+00
   -3.6842153238E+00   -3.6745454654E+00   -3.6649262345E+00   -3.6553572345E+00
   -3.6458380728E+00   -3.6363683612E+00   -3.6269477154E+00   -3.6175757550E+00
   -3.6082521035E+00   -3.5989763884E+00   -3.5897482409E+00   -3.5805672961E+00
   -3.5714331928E+00   -3.5623455733E+00   -3.5533040837E+00   -3.5443083736E+00
   -3.5353580964E+00   -3.5264529085E+00   -3.5175924702E+00   -3.5087764450E+00
   -3.5000044998E+00   -3.4912763048E+00   -3.4825915335E+00   -3.4739498627E+00
   -3.4653509724E+00   -3.4567945455E+00   -3.4482802684E+00   -3.4398078303E+00
   -3.4313769237E+00   -3.4229872439E+00   -3.4146384893E+00   -3.4063303610E+00
   -3.3980625633E+00   -3.3898348033E+00   -3.3816467908E+00   -3.3734982384E+00
   -3.3653888617E+00   -3.3573183787E+00   -3.3492865104E+00   -3.3412929802E+00
   -3.3333375143E+00   -3.3254198415E+00   -3.3175396931E+00   -3.3096968030E+00
   -3.3018909075E+00   -3.2941217455E+00   -3.2863890584E+00   -3.2786925898E+00
   -3.2710320859E+00   -3.2634072952E+00   -3.2558179686E+00   -3.2482638591E+00
   -3.2407447223E+00   -3.2332603158E+00   -3.2258103995E+00   -3.2183947357E+00
   -3.2110130885E+00   -3.2036652245E+00   -3.1963509124E+00   -3.1890699227E+00
   -3.1818220284E+00   -3.1746070042E+00   -3.1674246272E+00   -3.1602746761E+00
   -3.1531569319E+00   -3.1460711775E+00   -3.1390171977E+00   -3.1319947793E+00
   -3.1250037109E+00   -3.1180437830E+00   -3.1111147880E+00   -3.1042165203E+00
   -3.0973487757E+00   -3.0905113523E+00   -3.0837040496E+00   -3.0769266690E+00
   -3.0701790138E+00   -3.0634608887E+00   -3.0567721003E+00   -3.0501124569E+00
   -3.0434817684E+00   -3.0368798464E+00   -3.0303065041E+00   -3.0237615563E+00
   -3.0172448195E+00   -3.0107561116E+00   -3.0042952521E+00   -2.9978620622E+00
   -2.9914563646E+00   -2.9850779833E+00   -2.9787267440E+00   -2.9724024739E+00
   -2.9661050014E+00   -2.9598341567E+00   -2.9535897713E+00   -2.9473716779E+00
   -2.9411797109E+00   -2.9350137061E+00   -2.9288735003E+00   -2.9227589322E+00
   -2.9166698414E+00   -2.9106060690E+00   -2.9045674575E+00   -2.8985538505E+00
   -2.8925650932E+00   -2.8866010317E+00   -2.8806615136E+00   -2.8747463878E+00
   -2.8688555043E+00   -2.8629887144E+00   -2.8571458705E+00   -2.8513268264E+00
   -2.8455314369E+00   -2.8397595581E+00   -2.8340110472E+00   -2.8282857626E+00
   -2.8225835638E+00   -2.8169043115E+00   -2.8112478674E+00   -2.8056140944E+00
   -2.8000028565E+00   -2.7944140187E+00   -2.7888474472E+00   -2.7833030092E+00
   -2.7777805729E+00   -2.7722800076E+00   -2.7668011837E+00   -2.7613439725E+00
   -2.7559082464E+00   -2.7504938787E+00   -2.7451007439E+00   -2.7397287172E+00
   -2.7343776749E+00   -2.7290474945E+00   -2.7237380540E+00   -2.7184492327E+00
   -2.7131809108E+00   -2.7079329692E+00   -2.7027052899E+00   -2.6974977558E+00
   -2.6923102507E+00   -2.6871426592E+00   -2.6819948670E+00   -2.6768667603E+00
   -2.6717582266E+00   -2.6666691540E+00   -2.6615994315E+00   -2.6565489490E+00