<UPF version="2.0.1">
  <PP_INFO>

 This pseudopotential file has been produced using the code
 ONCVPSP  (Optimized Norm-Conservinng Vanderbilt PSeudopotential)
 fully-relativistic version 4.0.1 06/04/2019 by D. R. Hamann
 The code is available through a link at URL www.mat-simresearch.com.
 Documentation with the package provides a full discription of the
 input data below.


 While it is not required under the terms of the GNU GPL, it is
 suggested that you cite D. R. Hamann, Phys. Rev. B 88, 085117 (2013)
 in any publication using these pseudopotentials.

    <PP_INPUTFILE>
# ATOM AND REFERENCE CONFIGURATION
# atsym  z   nc   nv     iexc    psfile
  He  2.00    0    1       4      upf
#
#   n    l    f        energy (Ha)
    1    0    2.00
#
# PSEUDOPOTENTIAL AND OPTIMIZATION
# lmax
    0
#
#   l,   rc,     ep,   ncon, nbas, qcut
    0   1.98530   0.00000    5    8   7.17231
#
# LOCAL POTENTIAL
# lloc, lpopt,  rc(5),   dvloc0
    4    5   0.89431      0.00000
#
# VANDERBILT-KLEINMAN-BYLANDER PROJECTORs
# l, nproj, debl
    0    2   1.34022
#
# MODEL CORE CHARGE
# icmod, fcfact, rcfact
    0   0.00000   0.00000
#
# LOG DERIVATIVE ANALYSIS
# epsh1, epsh2, depsh
   -5.00    3.00    0.02
#
# OUTPUT GRID
# rlmax, drl
    6.00    0.01
#
# TEST CONFIGURATIONS
# ncnf
    0
# nvcnf
#   n    l    f
    </PP_INPUTFILE>
  </PP_INFO>
  <!--                               -->
  <!-- END OF HUMAN READABLE SECTION -->
  <!--                               -->
    <PP_HEADER
       generated="Generated using ONCVPSP code by D. R. Hamann"
       author="anonymous"
       date="220414"
       comment=""
       element="He"
       pseudo_type="NC"
       relativistic="full"
       is_ultrasoft="F"
       is_paw="F"
       is_coulomb="F"
       has_so="T"
       has_wfc="F"
       has_gipaw="F"
       core_correction="F"
       functional="PBE"
       z_valence="    2.00"
       total_psenergy="  -5.57967353743E+00"
       rho_cutoff="   7.27000000000E+00"
       l_max="0"
       l_local="-1"
       mesh_size="   728"
       number_of_wfc="1"
       number_of_proj="2"/>
 <PP_MESH>
   <PP_R type="real"  size=" 728" columns="8">
    0.0000    0.0100    0.0200    0.0300    0.0400    0.0500    0.0600    0.0700
    0.0800    0.0900    0.1000    0.1100    0.1200    0.1300    0.1400    0.1500
    0.1600    0.1700    0.1800    0.1900    0.2000    0.2100    0.2200    0.2300
    0.2400    0.2500    0.2600    0.2700    0.2800    0.2900    0.3000    0.3100
    0.3200    0.3300    0.3400    0.3500    0.3600    0.3700    0.3800    0.3900
    0.4000    0.4100    0.4200    0.4300    0.4400    0.4500    0.4600    0.4700
    0.4800    0.4900    0.5000    0.5100    0.5200    0.5300    0.5400    0.5500
    0.5600    0.5700    0.5800    0.5900    0.6000    0.6100    0.6200    0.6300
    0.6400    0.6500    0.6600    0.6700    0.6800    0.6900    0.7000    0.7100
    0.7200    0.7300    0.7400    0.7500    0.7600    0.7700    0.7800    0.7900
    0.8000    0.8100    0.8200    0.8300    0.8400    0.8500    0.8600    0.8700
    0.8800    0.8900    0.9000    0.9100    0.9200    0.9300    0.9400    0.9500
    0.9600    0.9700    0.9800    0.9900    1.0000    1.0100    1.0200    1.0300
    1.0400    1.0500    1.0600    1.0700    1.0800    1.0900    1.1000    1.1100
    1.1200    1.1300    1.1400    1.1500    1.1600    1.1700    1.1800    1.1900
    1.2000    1.2100    1.2200    1.2300    1.2400    1.2500    1.2600    1.2700
    1.2800    1.2900    1.3000    1.3100    1.3200    1.3300    1.3400    1.3500
    1.3600    1.3700    1.3800    1.3900    1.4000    1.4100    1.4200    1.4300
    1.4400    1.4500    1.4600    1.4700    1.4800    1.4900    1.5000    1.5100
    1.5200    1.5300    1.5400    1.5500    1.5600    1.5700    1.5800    1.5900
    1.6000    1.6100    1.6200    1.6300    1.6400    1.6500    1.6600    1.6700
    1.6800    1.6900    1.7000    1.7100    1.7200    1.7300    1.7400    1.7500
    1.7600    1.7700    1.7800    1.7900    1.8000    1.8100    1.8200    1.8300
    1.8400    1.8500    1.8600    1.8700    1.8800    1.8900    1.9000    1.9100
    1.9200    1.9300    1.9400    1.9500    1.9600    1.9700    1.9800    1.9900
    2.0000    2.0100    2.0200    2.0300    2.0400    2.0500    2.0600    2.0700
    2.0800    2.0900    2.1000    2.1100    2.1200    2.1300    2.1400    2.1500
    2.1600    2.1700    2.1800    2.1900    2.2000    2.2100    2.2200    2.2300
    2.2400    2.2500    2.2600    2.2700    2.2800    2.2900    2.3000    2.3100
    2.3200    2.3300    2.3400    2.3500    2.3600    2.3700    2.3800    2.3900
    2.4000    2.4100    2.4200    2.4300    2.4400    2.4500    2.4600    2.4700
    2.4800    2.4900    2.5000    2.5100    2.5200    2.5300    2.5400    2.5500
    2.5600    2.5700    2.5800    2.5900    2.6000    2.6100    2.6200    2.6300
    2.6400    2.6500    2.6600    2.6700    2.6800    2.6900    2.7000    2.7100
    2.7200    2.7300    2.7400    2.7500    2.7600    2.7700    2.7800    2.7900
    2.8000    2.8100    2.8200    2.8300    2.8400    2.8500    2.8600    2.8700
    2.8800    2.8900    2.9000    2.9100    2.9200    2.9300    2.9400    2.9500
    2.9600    2.9700    2.9800    2.9900    3.0000    3.0100    3.0200    3.0300
    3.0400    3.0500    3.0600    3.0700    3.0800    3.0900    3.1000    3.1100
    3.1200    3.1300    3.1400    3.1500    3.1600    3.1700    3.1800    3.1900
    3.2000    3.2100    3.2200    3.2300    3.2400    3.2500    3.2600    3.2700
    3.2800    3.2900    3.3000    3.3100    3.3200    3.3300    3.3400    3.3500
    3.3600    3.3700    3.3800    3.3900    3.4000    3.4100    3.4200    3.4300
    3.4400    3.4500    3.4600    3.4700    3.4800    3.4900    3.5000    3.5100
    3.5200    3.5300    3.5400    3.5500    3.5600    3.5700    3.5800    3.5900
    3.6000    3.6100    3.6200    3.6300    3.6400    3.6500    3.6600    3.6700
    3.6800    3.6900    3.7000    3.7100    3.7200    3.7300    3.7400    3.7500
    3.7600    3.7700    3.7800    3.7900    3.8000    3.8100    3.8200    3.8300
    3.8400    3.8500    3.8600    3.8700    3.8800    3.8900    3.9000    3.9100
    3.9200    3.9300    3.9400    3.9500    3.9600    3.9700    3.9800    3.9900
    4.0000    4.0100    4.0200    4.0300    4.0400    4.0500    4.0600    4.0700
    4.0800    4.0900    4.1000    4.1100    4.1200    4.1300    4.1400    4.1500
    4.1600    4.1700    4.1800    4.1900    4.2000    4.2100    4.2200    4.2300
    4.2400    4.2500    4.2600    4.2700    4.2800    4.2900    4.3000    4.3100
    4.3200    4.3300    4.3400    4.3500    4.3600    4.3700    4.3800    4.3900
    4.4000    4.4100    4.4200    4.4300    4.4400    4.4500    4.4600    4.4700
    4.4800    4.4900    4.5000    4.5100    4.5200    4.5300    4.5400    4.5500
    4.5600    4.5700    4.5800    4.5900    4.6000    4.6100    4.6200    4.6300
    4.6400    4.6500    4.6600    4.6700    4.6800    4.6900    4.7000    4.7100
    4.7200    4.7300    4.7400    4.7500    4.7600    4.7700    4.7800    4.7900
    4.8000    4.8100    4.8200    4.8300    4.8400    4.8500    4.8600    4.8700
    4.8800    4.8900    4.9000    4.9100    4.9200    4.9300    4.9400    4.9500
    4.9600    4.9700    4.9800    4.9900    5.0000    5.0100    5.0200    5.0300
    5.0400    5.0500    5.0600    5.0700    5.0800    5.0900    5.1000    5.1100
    5.1200    5.1300    5.1400    5.1500    5.1600    5.1700    5.1800    5.1900
    5.2000    5.2100    5.2200    5.2300    5.2400    5.2500    5.2600    5.2700
    5.2800    5.2900    5.3000    5.3100    5.3200    5.3300    5.3400    5.3500
    5.3600    5.3700    5.3800    5.3900    5.4000    5.4100    5.4200    5.4300
    5.4400    5.4500    5.4600    5.4700    5.4800    5.4900    5.5000    5.5100
    5.5200    5.5300    5.5400    5.5500    5.5600    5.5700    5.5800    5.5900
    5.6000    5.6100    5.6200    5.6300    5.6400    5.6500    5.6600    5.6700
    5.6800    5.6900    5.7000    5.7100    5.7200    5.7300    5.7400    5.7500
    5.7600    5.7700    5.7800    5.7900    5.8000    5.8100    5.8200    5.8300
    5.8400    5.8500    5.8600    5.8700    5.8800    5.8900    5.9000    5.9100
    5.9200    5.9300    5.9400    5.9500    5.9600    5.9700    5.9800    5.9900
    6.0000    6.0100    6.0200    6.0300    6.0400    6.0500    6.0600    6.0700
    6.0800    6.0900    6.1000    6.1100    6.1200    6.1300    6.1400    6.1500
    6.1600    6.1700    6.1800    6.1900    6.2000    6.2100    6.2200    6.2300
    6.2400    6.2500    6.2600    6.2700    6.2800    6.2900    6.3000    6.3100
    6.3200    6.3300    6.3400    6.3500    6.3600    6.3700    6.3800    6.3900
    6.4000    6.4100    6.4200    6.4300    6.4400    6.4500    6.4600    6.4700
    6.4800    6.4900    6.5000    6.5100    6.5200    6.5300    6.5400    6.5500
    6.5600    6.5700    6.5800    6.5900    6.6000    6.6100    6.6200    6.6300
    6.6400    6.6500    6.6600    6.6700    6.6800    6.6900    6.7000    6.7100
    6.7200    6.7300    6.7400    6.7500    6.7600    6.7700    6.7800    6.7900
    6.8000    6.8100    6.8200    6.8300    6.8400    6.8500    6.8600    6.8700
    6.8800    6.8900    6.9000    6.9100    6.9200    6.9300    6.9400    6.9500
    6.9600    6.9700    6.9800    6.9900    7.0000    7.0100    7.0200    7.0300
    7.0400    7.0500    7.0600    7.0700    7.0800    7.0900    7.1000    7.1100
    7.1200    7.1300    7.1400    7.1500    7.1600    7.1700    7.1800    7.1900
    7.2000    7.2100    7.2200    7.2300    7.2400    7.2500    7.2600    7.2700
   </PP_R>
   <PP_RAB type="real"  size=" 728" columns="8">
    0.0100    0.0100    0.0100    0.0100    0.0100    0.0100    0.0100    0.0100
    0.0100    0.0100    0.0100    0.0100    0.0100    0.0100    0.0100    0.0100
    0.0100    0.0100    0.0100    0.0100    0.0100    0.0100    0.0100    0.0100
    0.0100    0.0100    0.0100    0.0100    0.0100    0.0100    0.0100    0.0100
    0.0100    0.0100    0.0100    0.0100    0.0100    0.0100    0.0100    0.0100
    0.0100    0.0100    0.0100    0.0100    0.0100    0.0100    0.0100    0.0100
    0.0100    0.0100    0.0100    0.0100    0.0100    0.0100    0.0100    0.0100
    0.0100    0.0100    0.0100    0.0100    0.0100    0.0100    0.0100    0.0100
    0.0100    0.0100    0.0100    0.0100    0.0100    0.0100    0.0100    0.0100
    0.0100    0.0100    0.0100    0.0100    0.0100    0.0100    0.0100    0.0100
    0.0100    0.0100    0.0100    0.0100    0.0100    0.0100    0.0100    0.0100
    0.0100    0.0100    0.0100    0.0100    0.0100    0.0100    0.0100    0.0100
    0.0100    0.0100    0.0100    0.0100    0.0100    0.0100    0.0100    0.0100
    0.0100    0.0100    0.0100    0.0100    0.0100    0.0100    0.0100    0.0100
    0.0100    0.0100    0.0100    0.0100    0.0100    0.0100    0.0100    0.0100
    0.0100    0.0100    0.0100    0.0100    0.0100    0.0100    0.0100    0.0100
    0.0100    0.0100    0.0100    0.0100    0.0100    0.0100    0.0100    0.0100
    0.0100    0.0100    0.0100    0.0100    0.0100    0.0100    0.0100    0.0100
    0.0100    0.0100    0.0100    0.0100    0.0100    0.0100    0.0100    0.0100
    0.0100    0.0100    0.0100    0.0100    0.0100    0.0100    0.0100    0.0100
    0.0100    0.0100    0.0100    0.0100    0.0100    0.0100    0.0100    0.0100
    0.0100    0.0100    0.0100    0.0100    0.0100    0.0100    0.0100    0.0100
    0.0100    0.0100    0.0100    0.0100    0.0100    0.0100    0.0100    0.0100
    0.0100    0.0100    0.0100    0.0100    0.0100    0.0100    0.0100    0.0100
    0.0100    0.0100    0.0100    0.0100    0.0100    0.0100    0.0100    0.0100
    0.0100    0.0100    0.0100    0.0100    0.0100    0.0100    0.0100    0.0100
    0.0100    0.0100    0.0100    0.0100    0.0100    0.0100    0.0100    0.0100
    0.0100    0.0100    0.0100    0.0100    0.0100    0.0100    0.0100    0.0100
    0.0100    0.0100    0.0100    0.0100    0.0100    0.0100    0.0100    0.0100
    0.0100    0.0100    0.0100    0.0100    0.0100    0.0100    0.0100    0.0100
    0.0100    0.0100    0.0100    0.0100    0.0100    0.0100    0.0100    0.0100
    0.0100    0.0100    0.0100    0.0100    0.0100    0.0100    0.0100    0.0100
    0.0100    0.0100    0.0100    0.0100    0.0100    0.0100    0.0100    0.0100
    0.0100    0.0100    0.0100    0.0100    0.0100    0.0100    0.0100    0.0100
    0.0100    0.0100    0.0100    0.0100    0.0100    0.0100    0.0100    0.0100
    0.0100    0.0100    0.0100    0.0100    0.0100    0.0100    0.0100    0.0100
    0.0100    0.0100    0.0100    0.0100    0.0100    0.0100    0.0100    0.0100
    0.0100    0.0100    0.0100    0.0100    0.0100    0.0100    0.0100    0.0100
    0.0100    0.0100    0.0100    0.0100    0.0100    0.0100    0.0100    0.0100
    0.0100    0.0100    0.0100    0.0100    0.0100    0.0100    0.0100    0.0100
    0.0100    0.0100    0.0100    0.0100    0.0100    0.0100    0.0100    0.0100
    0.0100    0.0100    0.0100    0.0100    0.0100    0.0100    0.0100    0.0100
    0.0100    0.0100    0.0100    0.0100    0.0100    0.0100    0.0100    0.0100
    0.0100    0.0100    0.0100    0.0100    0.0100    0.0100    0.0100    0.0100
    0.0100    0.0100    0.0100    0.0100    0.0100    0.0100    0.0100    0.0100
    0.0100    0.0100    0.0100    0.0100    0.0100    0.0100    0.0100    0.0100
    0.0100    0.0100    0.0100    0.0100    0.0100    0.0100    0.0100    0.0100
    0.0100    0.0100    0.0100    0.0100    0.0100    0.0100    0.0100    0.0100
    0.0100    0.0100    0.0100    0.0100    0.0100    0.0100    0.0100    0.0100
    0.0100    0.0100    0.0100    0.0100    0.0100    0.0100    0.0100    0.0100
    0.0100    0.0100    0.0100    0.0100    0.0100    0.0100    0.0100    0.0100
    0.0100    0.0100    0.0100    0.0100    0.0100    0.0100    0.0100    0.0100
    0.0100    0.0100    0.0100    0.0100    0.0100    0.0100    0.0100    0.0100
    0.0100    0.0100    0.0100    0.0100    0.0100    0.0100    0.0100    0.0100
    0.0100    0.0100    0.0100    0.0100    0.0100    0.0100    0.0100    0.0100
    0.0100    0.0100    0.0100    0.0100    0.0100    0.0100    0.0100    0.0100
    0.0100    0.0100    0.0100    0.0100    0.0100    0.0100    0.0100    0.0100
    0.0100    0.0100    0.0100    0.0100    0.0100    0.0100    0.0100    0.0100
    0.0100    0.0100    0.0100    0.0100    0.0100    0.0100    0.0100    0.0100
    0.0100    0.0100    0.0100    0.0100    0.0100    0.0100    0.0100    0.0100
    0.0100    0.0100    0.0100    0.0100    0.0100    0.0100    0.0100    0.0100
    0.0100    0.0100    0.0100    0.0100    0.0100    0.0100    0.0100    0.0100
    0.0100    0.0100    0.0100    0.0100    0.0100    0.0100    0.0100    0.0100
    0.0100    0.0100    0.0100    0.0100    0.0100    0.0100    0.0100    0.0100
    0.0100    0.0100    0.0100    0.0100    0.0100    0.0100    0.0100    0.0100
    0.0100    0.0100    0.0100    0.0100    0.0100    0.0100    0.0100    0.0100
    0.0100    0.0100    0.0100    0.0100    0.0100    0.0100    0.0100    0.0100
    0.0100    0.0100    0.0100    0.0100    0.0100    0.0100    0.0100    0.0100
    0.0100    0.0100    0.0100    0.0100    0.0100    0.0100    0.0100    0.0100
    0.0100    0.0100    0.0100    0.0100    0.0100    0.0100    0.0100    0.0100
    0.0100    0.0100    0.0100    0.0100    0.0100    0.0100    0.0100    0.0100
    0.0100    0.0100    0.0100    0.0100    0.0100    0.0100    0.0100    0.0100
    0.0100    0.0100    0.0100    0.0100    0.0100    0.0100    0.0100    0.0100
    0.0100    0.0100    0.0100    0.0100    0.0100    0.0100    0.0100    0.0100
    0.0100    0.0100    0.0100    0.0100    0.0100    0.0100    0.0100    0.0100
    0.0100    0.0100    0.0100    0.0100    0.0100    0.0100    0.0100    0.0100
    0.0100    0.0100    0.0100    0.0100    0.0100    0.0100    0.0100    0.0100
    0.0100    0.0100    0.0100    0.0100    0.0100    0.0100    0.0100    0.0100
    0.0100    0.0100    0.0100    0.0100    0.0100    0.0100    0.0100    0.0100
    0.0100    0.0100    0.0100    0.0100    0.0100    0.0100    0.0100    0.0100
    0.0100    0.0100    0.0100    0.0100    0.0100    0.0100    0.0100    0.0100
    0.0100    0.0100    0.0100    0.0100    0.0100    0.0100    0.0100    0.0100
    0.0100    0.0100    0.0100    0.0100    0.0100    0.0100    0.0100    0.0100
    0.0100    0.0100    0.0100    0.0100    0.0100    0.0100    0.0100    0.0100
    0.0100    0.0100    0.0100    0.0100    0.0100    0.0100    0.0100    0.0100
    0.0100    0.0100    0.0100    0.0100    0.0100    0.0100    0.0100    0.0100
    0.0100    0.0100    0.0100    0.0100    0.0100    0.0100    0.0100    0.0100
    0.0100    0.0100    0.0100    0.0100    0.0100    0.0100    0.0100    0.0100
    0.0100    0.0100    0.0100    0.0100    0.0100    0.0100    0.0100    0.0100
    0.0100    0.0100    0.0100    0.0100    0.0100    0.0100    0.0100    0.0100
    0.0100    0.0100    0.0100    0.0100    0.0100    0.0100    0.0100    0.0100
   </PP_RAB>
 </PP_MESH>
  <PP_LOCAL type="real"  size=" 728" columns="4">
   -9.6986030087E+00   -9.6972137907E+00   -9.6930481798E+00   -9.6861122733E+00
   -9.6764162015E+00   -9.6639740771E+00   -9.6488039269E+00   -9.6309276049E+00
   -9.6103706902E+00   -9.5871623699E+00   -9.5613353091E+00   -9.5329255103E+00
   -9.5019721631E+00   -9.4685174882E+00   -9.4326065757E+00   -9.3942872201E+00
   -9.3536097556E+00   -9.3106268901E+00   -9.2653935431E+00   -9.2179666853E+00
   -9.1684051843E+00   -9.1167696548E+00   -9.0631223150E+00   -9.0075268503E+00
   -8.9500482834E+00   -8.8907528519E+00   -8.8297078929E+00   -8.7669817343E+00
   -8.7026435931E+00   -8.6367634801E+00   -8.5694121094E+00   -8.5006608144E+00
   -8.4305814675E+00   -8.3592464043E+00   -8.2867283509E+00   -8.2131003541E+00
   -8.1384357141E+00   -8.0628079179E+00   -7.9862905747E+00   -7.9089573512E+00
   -7.8308819073E+00   -7.7521378312E+00   -7.6727985737E+00   -7.5929373812E+00
   -7.5126272280E+00   -7.4319407461E+00   -7.3509501535E+00   -7.2697271803E+00
   -7.1883429929E+00   -7.1068681152E+00   -7.0253723483E+00   -6.9439246873E+00
   -6.8625932353E+00   -6.7814451162E+00   -6.7005463834E+00   -6.6199619278E+00
   -6.5397553825E+00   -6.4599890259E+00   -6.3807236825E+00   -6.3020186216E+00
   -6.2239314553E+00   -6.1465180332E+00   -6.0698323374E+00   -5.9939263756E+00
   -5.9188500727E+00   -5.8446511629E+00   -5.7713750800E+00   -5.6990648486E+00
   -5.6277609744E+00   -5.5575013353E+00   -5.4883210728E+00   -5.4202524842E+00
   -5.3533249155E+00   -5.2875646562E+00   -5.2229948346E+00   -5.1596353152E+00
   -5.0975025971E+00   -5.0366097150E+00   -4.9769661407E+00   -4.9185776870E+00
   -4.8614464129E+00   -4.8055705296E+00   -4.7509443079E+00   -4.6975579864E+00
   -4.6453976792E+00   -4.5944452844E+00   -4.5446783907E+00   -4.4960701838E+00
   -4.4485893500E+00   -4.4021999781E+00   -4.3568614701E+00   -4.3125297229E+00
   -4.2691612111E+00   -4.2267144245E+00   -4.1851498405E+00   -4.1444298791E+00
   -4.1045188581E+00   -4.0653829469E+00   -4.0269901207E+00   -3.9893101124E+00
   -3.9523143636E+00   -3.9159759726E+00   -3.8802696417E+00   -3.8451716213E+00
   -3.8106596521E+00   -3.7767129058E+00   -3.7433119233E+00   -3.7104385522E+00
   -3.6780758825E+00   -3.6462081813E+00   -3.6148208278E+00   -3.5839002472E+00
   -3.5534338454E+00   -3.5234099443E+00   -3.4938177179E+00   -3.4646471297E+00
   -3.4358888721E+00   -3.4075343073E+00   -3.3795754103E+00   -3.3520047151E+00
   -3.3248152622E+00   -3.2980005498E+00   -3.2715544876E+00   -3.2454713525E+00
   -3.2197457487E+00   -3.1943725693E+00   -3.1693469613E+00   -3.1446642932E+00
   -3.1203201251E+00   -3.0963101817E+00   -3.0726303270E+00   -3.0492765419E+00
   -3.0262449031E+00   -3.0035315647E+00   -2.9811327413E+00   -2.9590446921E+00
   -2.9372637071E+00   -2.9157860946E+00   -2.8946081693E+00   -2.8737262422E+00
   -2.8531366105E+00   -2.8328355494E+00   -2.8128193037E+00   -2.7930840814E+00
   -2.7736260464E+00   -2.7544413136E+00   -2.7355259435E+00   -2.7168759383E+00
   -2.6984872388E+00   -2.6803557215E+00   -2.6624771978E+00   -2.6448474131E+00
   -2.6274620477E+00   -2.6103167187E+00   -2.5934069830E+00   -2.5767283414E+00
   -2.5602762447E+00   -2.5440461002E+00   -2.5280332796E+00   -2.5122331291E+00
   -2.4966409790E+00   -2.4812521558E+00   -2.4660619945E+00   -2.4510658517E+00
   -2.4362591194E+00   -2.4216372394E+00   -2.4071957173E+00   -2.3929301371E+00
   -2.3788361752E+00   -2.3649096140E+00   -2.3511463545E+00   -2.3375424287E+00
   -2.3240940097E+00   -2.3107974217E+00   -2.2976491476E+00   -2.2846458356E+00
   -2.2717843035E+00   -2.2590615417E+00   -2.2464747140E+00   -2.2340211571E+00
   -2.2216983774E+00   -2.2095040468E+00   -2.1974359966E+00   -2.1854922096E+00
   -2.1736708110E+00   -2.1619700581E+00   -2.1503883286E+00   -2.1389241079E+00
   -2.1275759763E+00   -2.1163425948E+00   -2.1052226914E+00   -2.0942150470E+00
   -2.0833184796E+00   -2.0725318298E+00   -2.0618539489E+00   -2.0512836870E+00
   -2.0408198786E+00   -2.0304613320E+00   -2.0202068190E+00   -2.0100550645E+00
   -2.0000047340E+00   -1.9900544104E+00   -1.9802026133E+00   -1.9704478696E+00
   -1.9607887612E+00   -1.9512238902E+00   -1.9417518828E+00   -1.9323713936E+00
   -1.9230811023E+00   -1.9138797145E+00   -1.9047659600E+00   -1.8957385929E+00
   -1.8867963906E+00   -1.8779381537E+00   -1.8691627051E+00   -1.8604688897E+00
   -1.8518555735E+00   -1.8433216437E+00   -1.8348660079E+00   -1.8264875935E+00
   -1.8181853475E+00   -1.8099582358E+00   -1.8018052433E+00   -1.7937253727E+00
   -1.7857176448E+00   -1.7777810975E+00   -1.7699147861E+00   -1.7621177823E+00
   -1.7543891741E+00   -1.7467280656E+00   -1.7391335762E+00   -1.7316048409E+00
   -1.7241410092E+00   -1.7167412456E+00   -1.7094047285E+00   -1.7021306507E+00
   -1.6949182184E+00   -1.6877666512E+00   -1.6806751820E+00   -1.6736430562E+00
   -1.6666695322E+00   -1.6597538805E+00   -1.6528953835E+00   -1.6460933358E+00
   -1.6393470431E+00   -1.6326558228E+00   -1.6260190032E+00   -1.6194359237E+00
   -1.6129059340E+00   -1.6064283946E+00   -1.6000026761E+00   -1.5936281590E+00
   -1.5873042337E+00   -1.5810303005E+00   -1.5748057687E+00   -1.5686300573E+00
   -1.5625025940E+00   -1.5564228156E+00   -1.5503901677E+00   -1.5444041043E+00
   -1.5384640879E+00   -1.5325695893E+00   -1.5267200871E+00   -1.5209150682E+00
   -1.5151540269E+00   -1.5094364655E+00   -1.5037618936E+00   -1.4981298281E+00
   -1.4925397932E+00   -1.4869913200E+00   -1.4814839470E+00   -1.4760172189E+00
   -1.4705906876E+00   -1.4652039112E+00   -1.4598564546E+00   -1.4545478887E+00
   -1.4492777908E+00   -1.4440457444E+00   -1.4388513386E+00   -1.4336941689E+00
   -1.4285738362E+00   -1.4234899472E+00   -1.4184421143E+00   -1.4134299552E+00
   -1.4084530931E+00   -1.4035111563E+00   -1.3986037787E+00   -1.3937305988E+00
   -1.3888912605E+00   -1.3840854124E+00   -1.3793127081E+00   -1.3745728060E+00
   -1.3698653689E+00   -1.3651900645E+00   -1.3605465649E+00   -1.3559345467E+00
   -1.3513536907E+00   -1.3468036822E+00   -1.3422842107E+00   -1.3377949697E+00
   -1.3333356569E+00   -1.3289059741E+00   -1.3245056269E+00   -1.3201343248E+00
   -1.3157917813E+00   -1.3114777133E+00   -1.3071918419E+00   -1.3029338913E+00
   -1.2987035898E+00   -1.2945006687E+00   -1.2903248632E+00   -1.2861759117E+00
   -1.2820535559E+00   -1.2779575410E+00   -1.2738876152E+00   -1.2698435302E+00
   -1.2658250406E+00   -1.2618319041E+00   -1.2578638816E+00   -1.2539207369E+00
   -1.2500022367E+00   -1.2461081508E+00   -1.2422382517E+00   -1.2383923147E+00
   -1.2345701179E+00   -1.2307714423E+00   -1.2269960713E+00   -1.2232437911E+00
   -1.2195143906E+00   -1.2158076612E+00   -1.2121233967E+00   -1.2084613934E+00
   -1.2048214504E+00   -1.2012033687E+00   -1.1976069522E+00   -1.1940320066E+00
   -1.1904783404E+00   -1.1869457641E+00   -1.1834340905E+00   -1.1799431347E+00
   -1.1764727138E+00   -1.1730226472E+00   -1.1695927563E+00   -1.1661828646E+00
   -1.1627927978E+00   -1.1594223835E+00   -1.1560714513E+00   -1.1527398326E+00
   -1.1494273612E+00   -1.1461338722E+00   -1.1428592031E+00   -1.1396031930E+00
   -1.1363656829E+00   -1.1331465155E+00   -1.1299455354E+00   -1.1267625889E+00
   -1.1235975241E+00   -1.1204501906E+00   -1.1173204399E+00   -1.1142081250E+00
   -1.1111131007E+00   -1.1080352233E+00   -1.1049743506E+00   -1.1019303422E+00
   -1.0989030590E+00   -1.0958923636E+00   -1.0928981200E+00   -1.0899201937E+00
   -1.0869584517E+00   -1.0840127625E+00   -1.0810829958E+00   -1.0781690230E+00
   -1.0752707166E+00   -1.0723879506E+00   -1.0695206005E+00   -1.0666685428E+00
   -1.0638316555E+00   -1.0610098180E+00   -1.0582029108E+00   -1.0554108157E+00
   -1.0526334158E+00   -1.0498705953E+00   -1.0471222399E+00   -1.0443882360E+00
   -1.0416684718E+00   -1.0389628361E+00   -1.0362712192E+00   -1.0335935124E+00
   -1.0309296082E+00   -1.0282794001E+00   -1.0256427828E+00   -1.0230196519E+00
   -1.0204099043E+00   -1.0178134378E+00   -1.0152301513E+00   -1.0126599447E+00
   -1.0101027189E+00   -1.0075583758E+00   -1.0050268183E+00   -1.0025079503E+00
   -1.0000016766E+00   -9.9750790294E-01   -9.9502653609E-01   -9.9255748368E-01
   -9.9010065427E-01   -9.8765595731E-01   -9.8522330315E-01   -9.8280260304E-01
   -9.8039376908E-01   -9.7799671422E-01   -9.7561135228E-01   -9.7323759791E-01
   -9.7087536659E-01   -9.6852457462E-01   -9.6618513910E-01   -9.6385697795E-01
   -9.6154000985E-01   -9.5923415429E-01   -9.5693933150E-01   -9.5465546249E-01
   -9.5238246903E-01   -9.5012027362E-01   -9.4786879948E-01   -9.4562797060E-01
   -9.4339771164E-01   -9.4117794800E-01   -9.3896860577E-01   -9.3676961172E-01
   -9.3458089333E-01   -9.3240237874E-01   -9.3023399676E-01   -9.2807567685E-01
   -9.2592734916E-01   -9.2378894444E-01   -9.2166039411E-01   -9.1954163020E-01
   -9.1743258538E-01   -9.1533319293E-01   -9.1324338673E-01   -9.1116310127E-01
   -9.0909227165E-01   -9.0703083354E-01   -9.0497872319E-01   -9.0293587744E-01
   -9.0090223368E-01   -8.9887772989E-01   -8.9686230458E-01   -8.9485589683E-01
   -8.9285844625E-01   -8.9086989299E-01   -8.8889017774E-01   -8.8691924171E-01
   -8.8495702663E-01   -8.8300347475E-01   -8.8105852882E-01   -8.7912213209E-01
   -8.7719422833E-01   -8.7527476178E-01   -8.7336367718E-01   -8.7146091974E-01
   -8.6956643516E-01   -8.6768016959E-01   -8.6580206968E-01   -8.6393208251E-01
   -8.6207015562E-01   -8.6021623703E-01   -8.5837027516E-01   -8.5653221891E-01
   -8.5470201761E-01   -8.5287962100E-01   -8.5106497926E-01   -8.4925804302E-01
   -8.4745876329E-01   -8.4566709150E-01   -8.4388297951E-01   -8.4210637958E-01
   -8.4033724435E-01   -8.3857552689E-01   -8.3682118062E-01   -8.3507415940E-01
   -8.3333441744E-01   -8.3160190933E-01   -8.2987659006E-01   -8.2815841497E-01
   -8.2644733978E-01   -8.2474332057E-01   -8.2304631379E-01   -8.2135627625E-01
   -8.1967316509E-01   -8.1799693783E-01   -8.1632755232E-01   -8.1466496675E-01
   -8.1300913966E-01   -8.1136002994E-01   -8.0971759677E-01   -8.0808179971E-01
   -8.0645259860E-01   -8.0482995364E-01   -8.0321382534E-01   -8.0160417451E-01
   -8.0000096229E-01   -7.9840415013E-01   -7.9681369977E-01   -7.9522957328E-01
   -7.9365173301E-01   -7.9208014162E-01   -7.9051476206E-01   -7.8895555758E-01
   -7.8740249170E-01   -7.8585552825E-01   -7.8431463134E-01   -7.8277976533E-01
   -7.8125089491E-01   -7.7972798500E-01   -7.7821100082E-01   -7.7669990785E-01
   -7.7519467183E-01   -7.7369525879E-01   -7.7220163500E-01   -7.7071376698E-01
   -7.6923162155E-01   -7.6775516574E-01   -7.6628436686E-01   -7.6481919246E-01
   -7.6335961034E-01   -7.6190558854E-01   -7.6045709534E-01   -7.5901409929E-01
   -7.5757656913E-01   -7.5614447389E-01   -7.5471778278E-01   -7.5329646528E-01
   -7.5188049110E-01   -7.5046983014E-01   -7.4906445257E-01   -7.4766432876E-01
   -7.4626942930E-01   -7.4487972500E-01   -7.4349518690E-01   -7.4211578624E-01
   -7.4074149449E-01   -7.3937228330E-01   -7.3800812456E-01   -7.3664899036E-01
   -7.3529485299E-01   -7.3394568493E-01   -7.3260145890E-01   -7.3126214777E-01
   -7.2992772466E-01   -7.2859816284E-01   -7.2727343580E-01   -7.2595351721E-01
   -7.2463838095E-01   -7.2332800107E-01   -7.2202235181E-01   -7.2072140761E-01
   -7.1942514307E-01   -7.1813353299E-01   -7.1684655234E-01   -7.1556417629E-01
   -7.1428638017E-01   -7.1301313947E-01   -7.1174442990E-01   -7.1048022729E-01
   -7.0922050768E-01   -7.0796524727E-01   -7.0671442241E-01   -7.0546800965E-01
   -7.0422598567E-01   -7.0298832734E-01   -7.0175501168E-01   -7.0052601588E-01
   -6.9930131728E-01   -6.9808089337E-01   -6.9686472182E-01   -6.9565278045E-01
   -6.9444504721E-01   -6.9324150024E-01   -6.9204211780E-01   -6.9084687831E-01
   -6.8965576035E-01   -6.8846874263E-01   -6.8728580402E-01   -6.8610692353E-01
   -6.8493208031E-01   -6.8376125366E-01   -6.8259442302E-01   -6.8143156796E-01
   -6.8027266819E-01   -6.7911770358E-01   -6.7796665412E-01   -6.7681949993E-01
   -6.7567622126E-01   -6.7453679852E-01   -6.7340121224E-01   -6.7226944305E-01
   -6.7114147177E-01   -6.7001727929E-01   -6.6889684666E-01   -6.6778015505E-01
   -6.6666718576E-01   -6.6555792020E-01   -6.6445233992E-01   -6.6335042658E-01
   -6.6225216197E-01   -6.6115752800E-01   -6.6006650669E-01   -6.5897908019E-01
   -6.5789523077E-01   -6.5681494079E-01   -6.5573819275E-01   -6.5466496927E-01
   -6.5359525307E-01   -6.5252902697E-01   -6.5146627394E-01   -6.5040697702E-01
   -6.4935111939E-01   -6.4829868432E-01   -6.4724965520E-01   -6.4620401552E-01
   -6.4516174889E-01   -6.4412283900E-01   -6.4308726966E-01   -6.4205502480E-01
   -6.4102608842E-01   -6.4000044465E-01   -6.3897807770E-01   -6.3795897190E-01
   -6.3694311168E-01   -6.3593048154E-01   -6.3492106611E-01   -6.3391485011E-01
   -6.3291181834E-01   -6.3191195572E-01   -6.3091524725E-01   -6.2992167803E-01
   -6.2893123325E-01   -6.2794389820E-01   -6.2695965825E-01   -6.2597849888E-01