<UPF version="2.0.1">
  <PP_INFO>

 This pseudopotential file has been produced using the code
 ONCVPSP  (Optimized Norm-Conservinng Vanderbilt PSeudopotential)
 scalar-relativistic version 4.0.1 06/04/2019 by D. R. Hamann
 The code is available through a link at URL www.mat-simresearch.com.
 Documentation with the package provides a full discription of the
 input data below.


 While it is not required under the terms of the GNU GPL, it is
 suggested that you cite D. R. Hamann, Phys. Rev. B 88, 085117 (2013)
 in any publication using these pseudopotentials.

    <PP_INPUTFILE>
# ATOM AND REFERENCE CONFIGURATION
# atsym  z   nc   nv     iexc    psfile
  Ne 10.00    1    2       4      upf
#
#   n    l    f        energy (Ha)
    1    0    2.00
    2    0    2.00
    2    1    6.00
#
# PSEUDOPOTENTIAL AND OPTIMIZATION
# lmax
    1
#
#   l,   rc,      ep,       ncon, nbas, qcut
    0   2.61642   0.00000    5    8   7.96858
    1   2.63783   0.00000    5    8   6.60628
#
# LOCAL POTENTIAL
# lloc, lpopt,  rc(5),   dvloc0
    4    5   2.61477      0.00000
#
# VANDERBILT-KLEINMAN-BYLANDER PROJECTORs
# l, nproj, debl
    0    2   1.54861
    1    2   1.11000
#
# MODEL CORE CHARGE
# icmod, fcfact, rcfact
    0   0.00000   0.00000
#
# LOG DERIVATIVE ANALYSIS
# epsh1, epsh2, depsh
   -5.00    3.00    0.02
#
# OUTPUT GRID
# rlmax, drl
    6.00    0.01
#
# TEST CONFIGURATIONS
# ncnf
    0
# nvcnf
#   n    l    f
    </PP_INPUTFILE>
  </PP_INFO>
  <!--                               -->
  <!-- END OF HUMAN READABLE SECTION -->
  <!--                               -->
    <PP_HEADER
       generated="Generated using ONCVPSP code by D. R. Hamann"
       author="anonymous"
       date="220414"
       comment=""
       element="Ne"
       pseudo_type="NC"
       relativistic="scalar"
       is_ultrasoft="F"
       is_paw="F"
       is_coulomb="F"
       has_so="F"
       has_wfc="F"
       has_gipaw="F"
       core_correction="F"
       functional="PBE"
       z_valence="    8.00"
       total_psenergy="  -6.18394389301E+01"
       rho_cutoff="   7.53000000000E+00"
       l_max="1"
       l_local="-1"
       mesh_size="   754"
       number_of_wfc="2"
       number_of_proj="4"/>
 <PP_MESH>
   <PP_R type="real"  size=" 754" columns="8">
    0.0000    0.0100    0.0200    0.0300    0.0400    0.0500    0.0600    0.0700
    0.0800    0.0900    0.1000    0.1100    0.1200    0.1300    0.1400    0.1500
    0.1600    0.1700    0.1800    0.1900    0.2000    0.2100    0.2200    0.2300
    0.2400    0.2500    0.2600    0.2700    0.2800    0.2900    0.3000    0.3100
    0.3200    0.3300    0.3400    0.3500    0.3600    0.3700    0.3800    0.3900
    0.4000    0.4100    0.4200    0.4300    0.4400    0.4500    0.4600    0.4700
    0.4800    0.4900    0.5000    0.5100    0.5200    0.5300    0.5400    0.5500
    0.5600    0.5700    0.5800    0.5900    0.6000    0.6100    0.6200    0.6300
    0.6400    0.6500    0.6600    0.6700    0.6800    0.6900    0.7000    0.7100
    0.7200    0.7300    0.7400    0.7500    0.7600    0.7700    0.7800    0.7900
    0.8000    0.8100    0.8200    0.8300    0.8400    0.8500    0.8600    0.8700
    0.8800    0.8900    0.9000    0.9100    0.9200    0.9300    0.9400    0.9500
    0.9600    0.9700    0.9800    0.9900    1.0000    1.0100    1.0200    1.0300
    1.0400    1.0500    1.0600    1.0700    1.0800    1.0900    1.1000    1.1100
    1.1200    1.1300    1.1400    1.1500    1.1600    1.1700    1.1800    1.1900
    1.2000    1.2100    1.2200    1.2300    1.2400    1.2500    1.2600    1.2700
    1.2800    1.2900    1.3000    1.3100    1.3200    1.3300    1.3400    1.3500
    1.3600    1.3700    1.3800    1.3900    1.4000    1.4100    1.4200    1.4300
    1.4400    1.4500    1.4600    1.4700    1.4800    1.4900    1.5000    1.5100
    1.5200    1.5300    1.5400    1.5500    1.5600    1.5700    1.5800    1.5900
    1.6000    1.6100    1.6200    1.6300    1.6400    1.6500    1.6600    1.6700
    1.6800    1.6900    1.7000    1.7100    1.7200    1.7300    1.7400    1.7500
    1.7600    1.7700    1.7800    1.7900    1.8000    1.8100    1.8200    1.8300
    1.8400    1.8500    1.8600    1.8700    1.8800    1.8900    1.9000    1.9100
    1.9200    1.9300    1.9400    1.9500    1.9600    1.9700    1.9800    1.9900
    2.0000    2.0100    2.0200    2.0300    2.0400    2.0500    2.0600    2.0700
    2.0800    2.0900    2.1000    2.1100    2.1200    2.1300    2.1400    2.1500
    2.1600    2.1700    2.1800    2.1900    2.2000    2.2100    2.2200    2.2300
    2.2400    2.2500    2.2600    2.2700    2.2800    2.2900    2.3000    2.3100
    2.3200    2.3300    2.3400    2.3500    2.3600    2.3700    2.3800    2.3900
    2.4000    2.4100    2.4200    2.4300    2.4400    2.4500    2.4600    2.4700
    2.4800    2.4900    2.5000    2.5100    2.5200    2.5300    2.5400    2.5500
    2.5600    2.5700    2.5800    2.5900    2.6000    2.6100    2.6200    2.6300
    2.6400    2.6500    2.6600    2.6700    2.6800    2.6900    2.7000    2.7100
    2.7200    2.7300    2.7400    2.7500    2.7600    2.7700    2.7800    2.7900
    2.8000    2.8100    2.8200    2.8300    2.8400    2.8500    2.8600    2.8700
    2.8800    2.8900    2.9000    2.9100    2.9200    2.9300    2.9400    2.9500
    2.9600    2.9700    2.9800    2.9900    3.0000    3.0100    3.0200    3.0300
    3.0400    3.0500    3.0600    3.0700    3.0800    3.0900    3.1000    3.1100
    3.1200    3.1300    3.1400    3.1500    3.1600    3.1700    3.1800    3.1900
    3.2000    3.2100    3.2200    3.2300    3.2400    3.2500    3.2600    3.2700
    3.2800    3.2900    3.3000    3.3100    3.3200    3.3300    3.3400    3.3500
    3.3600    3.3700    3.3800    3.3900    3.4000    3.4100    3.4200    3.4300
    3.4400    3.4500    3.4600    3.4700    3.4800    3.4900    3.5000    3.5100
    3.5200    3.5300    3.5400    3.5500    3.5600    3.5700    3.5800    3.5900
    3.6000    3.6100    3.6200    3.6300    3.6400    3.6500    3.6600    3.6700
    3.6800    3.6900    3.7000    3.7100    3.7200    3.7300    3.7400    3.7500
    3.7600    3.7700    3.7800    3.7900    3.8000    3.8100    3.8200    3.8300
    3.8400    3.8500    3.8600    3.8700    3.8800    3.8900    3.9000    3.9100
    3.9200    3.9300    3.9400    3.9500    3.9600    3.9700    3.9800    3.9900
    4.0000    4.0100    4.0200    4.0300    4.0400    4.0500    4.0600    4.0700
    4.0800    4.0900    4.1000    4.1100    4.1200    4.1300    4.1400    4.1500
    4.1600    4.1700    4.1800    4.1900    4.2000    4.2100    4.2200    4.2300
    4.2400    4.2500    4.2600    4.2700    4.2800    4.2900    4.3000    4.3100
    4.3200    4.3300    4.3400    4.3500    4.3600    4.3700    4.3800    4.3900
    4.4000    4.4100    4.4200    4.4300    4.4400    4.4500    4.4600    4.4700
    4.4800    4.4900    4.5000    4.5100    4.5200    4.5300    4.5400    4.5500
    4.5600    4.5700    4.5800    4.5900    4.6000    4.6100    4.6200    4.6300
    4.6400    4.6500    4.6600    4.6700    4.6800    4.6900    4.7000    4.7100
    4.7200    4.7300    4.7400    4.7500    4.7600    4.7700    4.7800    4.7900
    4.8000    4.8100    4.8200    4.8300    4.8400    4.8500    4.8600    4.8700
    4.8800    4.8900    4.9000    4.9100    4.9200    4.9300    4.9400    4.9500
    4.9600    4.9700    4.9800    4.9900    5.0000    5.0100    5.0200    5.0300
    5.0400    5.0500    5.0600    5.0700    5.0800    5.0900    5.1000    5.1100
    5.1200    5.1300    5.1400    5.1500    5.1600    5.1700    5.1800    5.1900
    5.2000    5.2100    5.2200    5.2300    5.2400    5.2500    5.2600    5.2700
    5.2800    5.2900    5.3000    5.3100    5.3200    5.3300    5.3400    5.3500
    5.3600    5.3700    5.3800    5.3900    5.4000    5.4100    5.4200    5.4300
    5.4400    5.4500    5.4600    5.4700    5.4800    5.4900    5.5000    5.5100
    5.5200    5.5300    5.5400    5.5500    5.5600    5.5700    5.5800    5.5900
    5.6000    5.6100    5.6200    5.6300    5.6400    5.6500    5.6600    5.6700
    5.6800    5.6900    5.7000    5.7100    5.7200    5.7300    5.7400    5.7500
    5.7600    5.7700    5.7800    5.7900    5.8000    5.8100    5.8200    5.8300
    5.8400    5.8500    5.8600    5.8700    5.8800    5.8900    5.9000    5.9100
    5.9200    5.9300    5.9400    5.9500    5.9600    5.9700    5.9800    5.9900
    6.0000    6.0100    6.0200    6.0300    6.0400    6.0500    6.0600    6.0700
    6.0800    6.0900    6.1000    6.1100    6.1200    6.1300    6.1400    6.1500
    6.1600    6.1700    6.1800    6.1900    6.2000    6.2100    6.2200    6.2300
    6.2400    6.2500    6.2600    6.2700    6.2800    6.2900    6.3000    6.3100
    6.3200    6.3300    6.3400    6.3500    6.3600    6.3700    6.3800    6.3900
    6.4000    6.4100    6.4200    6.4300    6.4400    6.4500    6.4600    6.4700
    6.4800    6.4900    6.5000    6.5100    6.5200    6.5300    6.5400    6.5500
    6.5600    6.5700    6.5800    6.5900    6.6000    6.6100    6.6200    6.6300
    6.6400    6.6500    6.6600    6.6700    6.6800    6.6900    6.7000    6.7100
    6.7200    6.7300    6.7400    6.7500    6.7600    6.7700    6.7800    6.7900
    6.8000    6.8100    6.8200    6.8300    6.8400    6.8500    6.8600    6.8700
    6.8800    6.8900    6.9000    6.9100    6.9200    6.9300    6.9400    6.9500
    6.9600    6.9700    6.9800    6.9900    7.0000    7.0100    7.0200    7.0300
    7.0400    7.0500    7.0600    7.0700    7.0800    7.0900    7.1000    7.1100
    7.1200    7.1300    7.1400    7.1500    7.1600    7.1700    7.1800    7.1900
    7.2000    7.2100    7.2200    7.2300    7.2400    7.2500    7.2600    7.2700
    7.2800    7.2900    7.3000    7.3100    7.3200    7.3300    7.3400    7.3500
    7.3600    7.3700    7.3800    7.3900    7.4000    7.4100    7.4200    7.4300
    7.4400    7.4500    7.4600    7.4700    7.4800    7.4900    7.5000    7.5100
    7.5200    7.5300
   </PP_R>
   <PP_RAB type="real"  size=" 754" columns="8">
    0.0100    0.0100    0.0100    0.0100    0.0100    0.0100    0.0100    0.0100
    0.0100    0.0100    0.0100    0.0100    0.0100    0.0100    0.0100    0.0100
    0.0100    0.0100    0.0100    0.0100    0.0100    0.0100    0.0100    0.0100
    0.0100    0.0100    0.0100    0.0100    0.0100    0.0100    0.0100    0.0100
    0.0100    0.0100    0.0100    0.0100    0.0100    0.0100    0.0100    0.0100
    0.0100    0.0100    0.0100    0.0100    0.0100    0.0100    0.0100    0.0100
    0.0100    0.0100    0.0100    0.0100    0.0100    0.0100    0.0100    0.0100
    0.0100    0.0100    0.0100    0.0100    0.0100    0.0100    0.0100    0.0100
    0.0100    0.0100    0.0100    0.0100    0.0100    0.0100    0.0100    0.0100
    0.0100    0.0100    0.0100    0.0100    0.0100    0.0100    0.0100    0.0100
    0.0100    0.0100    0.0100    0.0100    0.0100    0.0100    0.0100    0.0100
    0.0100    0.0100    0.0100    0.0100    0.0100    0.0100    0.0100    0.0100
    0.0100    0.0100    0.0100    0.0100    0.0100    0.0100    0.0100    0.0100
    0.0100    0.0100    0.0100    0.0100    0.0100    0.0100    0.0100    0.0100
    0.0100    0.0100    0.0100    0.0100    0.0100    0.0100    0.0100    0.0100
    0.0100    0.0100    0.0100    0.0100    0.0100    0.0100    0.0100    0.0100
    0.0100    0.0100    0.0100    0.0100    0.0100    0.0100    0.0100    0.0100
    0.0100    0.0100    0.0100    0.0100    0.0100    0.0100    0.0100    0.0100
    0.0100    0.0100    0.0100    0.0100    0.0100    0.0100    0.0100    0.0100
    0.0100    0.0100    0.0100    0.0100    0.0100    0.0100    0.0100    0.0100
    0.0100    0.0100    0.0100    0.0100    0.0100    0.0100    0.0100    0.0100
    0.0100    0.0100    0.0100    0.0100    0.0100    0.0100    0.0100    0.0100
    0.0100    0.0100    0.0100    0.0100    0.0100    0.0100    0.0100    0.0100
    0.0100    0.0100    0.0100    0.0100    0.0100    0.0100    0.0100    0.0100
    0.0100    0.0100    0.0100    0.0100    0.0100    0.0100    0.0100    0.0100
    0.0100    0.0100    0.0100    0.0100    0.0100    0.0100    0.0100    0.0100
    0.0100    0.0100    0.0100    0.0100    0.0100    0.0100    0.0100    0.0100
    0.0100    0.0100    0.0100    0.0100    0.0100    0.0100    0.0100    0.0100
    0.0100    0.0100    0.0100    0.0100    0.0100    0.0100    0.0100    0.0100
    0.0100    0.0100    0.0100    0.0100    0.0100    0.0100    0.0100    0.0100
    0.0100    0.0100    0.0100    0.0100    0.0100    0.0100    0.0100    0.0100
    0.0100    0.0100    0.0100    0.0100    0.0100    0.0100    0.0100    0.0100
    0.0100    0.0100    0.0100    0.0100    0.0100    0.0100    0.0100    0.0100
    0.0100    0.0100    0.0100    0.0100    0.0100    0.0100    0.0100    0.0100
    0.0100    0.0100    0.0100    0.0100    0.0100    0.0100    0.0100    0.0100
    0.0100    0.0100    0.0100    0.0100    0.0100    0.0100    0.0100    0.0100
    0.0100    0.0100    0.0100    0.0100    0.0100    0.0100    0.0100    0.0100
    0.0100    0.0100    0.0100    0.0100    0.0100    0.0100    0.0100    0.0100
    0.0100    0.0100    0.0100    0.0100    0.0100    0.0100    0.0100    0.0100
    0.0100    0.0100    0.0100    0.0100    0.0100    0.0100    0.0100    0.0100
    0.0100    0.0100    0.0100    0.0100    0.0100    0.0100    0.0100    0.0100
    0.0100    0.0100    0.0100    0.0100    0.0100    0.0100    0.0100    0.0100
    0.0100    0.0100    0.0100    0.0100    0.0100    0.0100    0.0100    0.0100
    0.0100    0.0100    0.0100    0.0100    0.0100    0.0100    0.0100    0.0100
    0.0100    0.0100    0.0100    0.0100    0.0100    0.0100    0.0100    0.0100
    0.0100    0.0100    0.0100    0.0100    0.0100    0.0100    0.0100    0.0100
    0.0100    0.0100    0.0100    0.0100    0.0100    0.0100    0.0100    0.0100
    0.0100    0.0100    0.0100    0.0100    0.0100    0.0100    0.0100    0.0100
    0.0100    0.0100    0.0100    0.0100    0.0100    0.0100    0.0100    0.0100
    0.0100    0.0100    0.0100    0.0100    0.0100    0.0100    0.0100    0.0100
    0.0100    0.0100    0.0100    0.0100    0.0100    0.0100    0.0100    0.0100
    0.0100    0.0100    0.0100    0.0100    0.0100    0.0100    0.0100    0.0100
    0.0100    0.0100    0.0100    0.0100    0.0100    0.0100    0.0100    0.0100
    0.0100    0.0100    0.0100    0.0100    0.0100    0.0100    0.0100    0.0100
    0.0100    0.0100    0.0100    0.0100    0.0100    0.0100    0.0100    0.0100
    0.0100    0.0100    0.0100    0.0100    0.0100    0.0100    0.0100    0.0100
    0.0100    0.0100    0.0100    0.0100    0.0100    0.0100    0.0100    0.0100
    0.0100    0.0100    0.0100    0.0100    0.0100    0.0100    0.0100    0.0100
    0.0100    0.0100    0.0100    0.0100    0.0100    0.0100    0.0100    0.0100
    0.0100    0.0100    0.0100    0.0100    0.0100    0.0100    0.0100    0.0100
    0.0100    0.0100    0.0100    0.0100    0.0100    0.0100    0.0100    0.0100
    0.0100    0.0100    0.0100    0.0100    0.0100    0.0100    0.0100    0.0100
    0.0100    0.0100    0.0100    0.0100    0.0100    0.0100    0.0100    0.0100
    0.0100    0.0100    0.0100    0.0100    0.0100    0.0100    0.0100    0.0100
    0.0100    0.0100    0.0100    0.0100    0.0100    0.0100    0.0100    0.0100
    0.0100    0.0100    0.0100    0.0100    0.0100    0.0100    0.0100    0.0100
    0.0100    0.0100    0.0100    0.0100    0.0100    0.0100    0.0100    0.0100
    0.0100    0.0100    0.0100    0.0100    0.0100    0.0100    0.0100    0.0100
    0.0100    0.0100    0.0100    0.0100    0.0100    0.0100    0.0100    0.0100
    0.0100    0.0100    0.0100    0.0100    0.0100    0.0100    0.0100    0.0100
    0.0100    0.0100    0.0100    0.0100    0.0100    0.0100    0.0100    0.0100
    0.0100    0.0100    0.0100    0.0100    0.0100    0.0100    0.0100    0.0100
    0.0100    0.0100    0.0100    0.0100    0.0100    0.0100    0.0100    0.0100
    0.0100    0.0100    0.0100    0.0100    0.0100    0.0100    0.0100    0.0100
    0.0100    0.0100    0.0100    0.0100    0.0100    0.0100    0.0100    0.0100
    0.0100    0.0100    0.0100    0.0100    0.0100    0.0100    0.0100    0.0100
    0.0100    0.0100    0.0100    0.0100    0.0100    0.0100    0.0100    0.0100
    0.0100    0.0100    0.0100    0.0100    0.0100    0.0100    0.0100    0.0100
    0.0100    0.0100    0.0100    0.0100    0.0100    0.0100    0.0100    0.0100
    0.0100    0.0100    0.0100    0.0100    0.0100    0.0100    0.0100    0.0100
    0.0100    0.0100    0.0100    0.0100    0.0100    0.0100    0.0100    0.0100
    0.0100    0.0100    0.0100    0.0100    0.0100    0.0100    0.0100    0.0100
    0.0100    0.0100    0.0100    0.0100    0.0100    0.0100    0.0100    0.0100
    0.0100    0.0100    0.0100    0.0100    0.0100    0.0100    0.0100    0.0100
    0.0100    0.0100    0.0100    0.0100    0.0100    0.0100    0.0100    0.0100
    0.0100    0.0100    0.0100    0.0100    0.0100    0.0100    0.0100    0.0100
    0.0100    0.0100    0.0100    0.0100    0.0100    0.0100    0.0100    0.0100
    0.0100    0.0100    0.0100    0.0100    0.0100    0.0100    0.0100    0.0100
    0.0100    0.0100    0.0100    0.0100    0.0100    0.0100    0.0100    0.0100
    0.0100    0.0100    0.0100    0.0100    0.0100    0.0100    0.0100    0.0100
    0.0100    0.0100    0.0100    0.0100    0.0100    0.0100    0.0100    0.0100
    0.0100    0.0100    0.0100    0.0100    0.0100    0.0100    0.0100    0.0100
    0.0100    0.0100    0.0100    0.0100    0.0100    0.0100    0.0100    0.0100
    0.0100    0.0100    0.0100    0.0100    0.0100    0.0100    0.0100    0.0100
    0.0100    0.0100
   </PP_RAB>
 </PP_MESH>
  <PP_LOCAL type="real"  size=" 754" columns="4">
   -1.7803174794E+01   -1.7802839205E+01   -1.7801834928E+01   -1.7800111699E+01
   -1.7797599728E+01   -1.7794209551E+01   -1.7789839040E+01   -1.7784380906E+01
   -1.7777729965E+01   -1.7769789495E+01   -1.7760476279E+01   -1.7749724089E+01
   -1.7737485601E+01   -1.7723732877E+01   -1.7708456643E+01   -1.7691664681E+01
   -1.7673379602E+01   -1.7653636303E+01   -1.7632479316E+01   -1.7609960219E+01
   -1.7586135252E+01   -1.7561063180E+01   -1.7534803459E+01   -1.7507414708E+01
   -1.7478953470E+01   -1.7449473239E+01   -1.7419023727E+01   -1.7387650324E+01
   -1.7355393743E+01   -1.7322289795E+01   -1.7288369286E+01   -1.7253658013E+01
   -1.7218176828E+01   -1.7181941777E+01   -1.7144964288E+01   -1.7107251399E+01
   -1.7068806037E+01   -1.7029627320E+01   -1.6989710895E+01   -1.6949049308E+01
   -1.6907632385E+01   -1.6865447653E+01   -1.6822480766E+01   -1.6778715949E+01
   -1.6734136459E+01   -1.6688725043E+01   -1.6642464400E+01   -1.6595337637E+01
   -1.6547328715E+01   -1.6498422868E+01   -1.6448607003E+01   -1.6397870063E+01
   -1.6346203356E+01   -1.6293600835E+01   -1.6240059330E+01   -1.6185578735E+01
   -1.6130162129E+01   -1.6073815857E+01   -1.6016549542E+01   -1.5958376062E+01
   -1.5899311462E+01   -1.5839374834E+01   -1.5778588151E+01   -1.5716976073E+01
   -1.5654565722E+01   -1.5591386435E+01   -1.5527469512E+01   -1.5462847947E+01
   -1.5397556158E+01   -1.5331629728E+01   -1.5265105146E+01   -1.5198019564E+01
   -1.5130410564E+01   -1.5062315951E+01   -1.4993773556E+01   -1.4924821064E+01
   -1.4855495862E+01   -1.4785834903E+01   -1.4715874594E+01   -1.4645650701E+01
   -1.4575198268E+01   -1.4504551555E+01   -1.4433743990E+01   -1.4362808129E+01
   -1.4291775634E+01   -1.4220677250E+01   -1.4149542800E+01   -1.4078401181E+01
   -1.4007280361E+01   -1.3936207386E+01   -1.3865208388E+01   -1.3794308593E+01
   -1.3723532327E+01   -1.3652903031E+01   -1.3582443268E+01   -1.3512174729E+01
   -1.3442118244E+01   -1.3372293786E+01   -1.3302720475E+01   -1.3233416582E+01
   -1.3164399528E+01   -1.3095685885E+01   -1.3027291370E+01   -1.2959230845E+01
   -1.2891518307E+01   -1.2824166883E+01   -1.2757188817E+01   -1.2690595466E+01
   -1.2624397283E+01   -1.2558603808E+01   -1.2493223653E+01   -1.2428264494E+01
   -1.2363733051E+01   -1.2299635082E+01   -1.2235975368E+01   -1.2172757701E+01
   -1.2109984879E+01   -1.2047658699E+01   -1.1985779949E+01   -1.1924348411E+01
   -1.1863362863E+01   -1.1802821088E+01   -1.1742719885E+01   -1.1683055087E+01
   -1.1623821589E+01   -1.1565013377E+01   -1.1506623567E+01   -1.1448644453E+01
   -1.1391067557E+01   -1.1333883696E+01   -1.1277083046E+01   -1.1220655225E+01
   -1.1164589369E+01   -1.1108874229E+01   -1.1053498263E+01   -1.0998449737E+01
   -1.0943716829E+01   -1.0889287731E+01   -1.0835150761E+01   -1.0781294463E+01
   -1.0727707712E+01   -1.0674379811E+01   -1.0621300588E+01   -1.0568460478E+01
   -1.0515850607E+01   -1.0463462853E+01   -1.0411289917E+01   -1.0359325358E+01
   -1.0307563641E+01   -1.0256000155E+01   -1.0204631231E+01   -1.0153454139E+01
   -1.0102467084E+01   -1.0051669181E+01   -1.0001060429E+01   -9.9506416706E+00
   -9.9004145443E+00   -9.8503814322E+00   -9.8005454002E+00   -9.7509101341E+00
   -9.7014798723E+00   -9.6522593367E+00   -9.6032536619E+00   -9.5544683248E+00
   -9.5059090749E+00   -9.4575818665E+00   -9.4094927933E+00   -9.3616480257E+00
   -9.3140537529E+00   -9.2667161275E+00   -9.2196412159E+00   -9.1728349522E+00
   -9.1263030978E+00   -9.0800512044E+00   -9.0340845832E+00   -8.9884082776E+00
   -8.9430270404E+00   -8.8979453160E+00   -8.8531672255E+00   -8.8086965562E+00
   -8.7645367545E+00   -8.7206909214E+00   -8.6771618114E+00   -8.6339518335E+00
   -8.5910630548E+00   -8.5484972055E+00   -8.5062556862E+00   -8.4643395764E+00
   -8.4227496435E+00   -8.3814863539E+00   -8.3405498841E+00   -8.2999401325E+00
   -8.2596567313E+00   -8.2196990595E+00   -8.1800662550E+00   -8.1407572269E+00
   -8.1017706683E+00   -8.0631050683E+00   -8.0247587235E+00   -7.9867297498E+00
   -7.9490160933E+00   -7.9116155412E+00   -7.8745257318E+00   -7.8377441647E+00
   -7.8012682100E+00   -7.7650951174E+00   -7.7292220253E+00   -7.6936459692E+00
   -7.6583638899E+00   -7.6233726425E+00   -7.5886690035E+00   -7.5542496804E+00
   -7.5201113191E+00   -7.4862505130E+00   -7.4526638117E+00   -7.4193477305E+00
   -7.3862987591E+00   -7.3535133725E+00   -7.3209880403E+00   -7.2887192377E+00
   -7.2567034562E+00   -7.2249372146E+00   -7.1934170702E+00   -7.1621396301E+00
   -7.1311015623E+00   -7.1002996066E+00   -7.0697305853E+00   -7.0393914133E+00
   -7.0092791074E+00   -6.9793907951E+00   -6.9497237223E+00   -6.9202752599E+00
   -6.8910429093E+00   -6.8620243065E+00   -6.8332172248E+00   -6.8046195764E+00
   -6.7762294122E+00   -6.7480449199E+00   -6.7200644212E+00   -6.6922863670E+00
   -6.6647093320E+00   -6.6373320068E+00   -6.6101531900E+00   -6.5831717784E+00
   -6.5563867567E+00   -6.5297971861E+00   -6.5034021923E+00   -6.4772009529E+00
   -6.4511926850E+00   -6.4253766307E+00   -6.3997520447E+00   -6.3743181794E+00
   -6.3490742748E+00   -6.3240195459E+00   -6.2991531715E+00   -6.2744742784E+00
   -6.2499819299E+00   -6.2256751180E+00   -6.2015527525E+00   -6.1776136511E+00
   -6.1538565321E+00   -6.1302800075E+00   -6.1068825756E+00   -6.0836626126E+00
   -6.0606183774E+00   -6.0377480290E+00   -6.0150496547E+00   -5.9925213154E+00
   -5.9701610917E+00   -5.9479671065E+00   -5.9259375261E+00   -5.9040705301E+00
   -5.8823643227E+00   -5.8608171375E+00   -5.8394272334E+00   -5.8181928945E+00
   -5.7971124299E+00   -5.7761841730E+00   -5.7554064813E+00   -5.7347777356E+00
   -5.7142963401E+00   -5.6939607216E+00   -5.6737693292E+00   -5.6537206339E+00
   -5.6338131284E+00   -5.6140453263E+00   -5.5944157623E+00   -5.5749229912E+00
   -5.5555655881E+00   -5.5363421477E+00   -5.5172512842E+00   -5.4982916307E+00
   -5.4794618391E+00   -5.4607605798E+00   -5.4421865411E+00   -5.4237384292E+00
   -5.4054149679E+00   -5.3872148978E+00   -5.3691369769E+00   -5.3511799795E+00
   -5.3333426963E+00   -5.3156239342E+00   -5.2980225156E+00   -5.2805372788E+00
   -5.2631670771E+00   -5.2459107792E+00   -5.2287672681E+00   -5.2117354418E+00
   -5.1948142123E+00   -5.1780025059E+00   -5.1612992626E+00   -5.1447034361E+00
   -5.1282139936E+00   -5.1118299153E+00   -5.0955501946E+00   -5.0793738376E+00
   -5.0632998629E+00   -5.0473273015E+00   -5.0314551968E+00   -5.0156826040E+00
   -5.0000085900E+00   -4.9844322337E+00   -4.9689526251E+00   -4.9535688656E+00
   -4.9382800676E+00   -4.9230853547E+00   -4.9079838610E+00   -4.8929747312E+00
   -4.8780571205E+00   -4.8632301943E+00   -4.8484931284E+00   -4.8338451082E+00
   -4.8192853290E+00   -4.8048129959E+00   -4.7904273234E+00   -4.7761275355E+00
   -4.7619128652E+00   -4.7477825550E+00   -4.7337358559E+00   -4.7197720280E+00
   -4.7058903402E+00   -4.6920900698E+00   -4.6783705026E+00   -4.6647309327E+00
   -4.6511706624E+00   -4.6376890022E+00   -4.6242852706E+00   -4.6109587936E+00
   -4.5977089055E+00   -4.5845349477E+00   -4.5714362694E+00   -4.5584122273E+00
   -4.5454621852E+00   -4.5325855143E+00   -4.5197815926E+00   -4.5070498055E+00
   -4.4943895451E+00   -4.4818002103E+00   -4.4692812067E+00   -4.4568319466E+00
   -4.4444518488E+00   -4.4321403386E+00   -4.4198968476E+00   -4.4077208135E+00
   -4.3956116805E+00   -4.3835688987E+00   -4.3715919242E+00   -4.3596802190E+00
   -4.3478332512E+00   -4.3360504943E+00   -4.3243314277E+00   -4.3126755365E+00
   -4.3010823111E+00   -4.2895512475E+00   -4.2780818471E+00   -4.2666736166E+00
   -4.2553260680E+00   -4.2440387183E+00   -4.2328110899E+00   -4.2216427099E+00
   -4.2105331106E+00   -4.1994818292E+00   -4.1884884077E+00   -4.1775523929E+00
   -4.1666733363E+00   -4.1558507940E+00   -4.1450843269E+00   -4.1343735003E+00
   -4.1237178838E+00   -4.1131170519E+00   -4.1025705830E+00   -4.0920780600E+00
   -4.0816390701E+00   -4.0712532046E+00   -4.0609200591E+00   -4.0506392332E+00
   -4.0404103304E+00   -4.0302329585E+00   -4.0201067289E+00   -4.0100312572E+00
   -4.0000061628E+00   -3.9900310686E+00   -3.9801056016E+00   -3.9702293924E+00
   -3.9604020751E+00   -3.9506232876E+00   -3.9408926714E+00   -3.9312098713E+00
   -3.9215745358E+00   -3.9119863167E+00   -3.9024448693E+00   -3.8929498522E+00
   -3.8835009272E+00   -3.8740977596E+00   -3.8647400179E+00   -3.8554273736E+00
   -3.8461595015E+00   -3.8369360795E+00   -3.8277567886E+00   -3.8186213129E+00
   -3.8095293393E+00   -3.8004805579E+00   -3.7914746617E+00   -3.7825113464E+00
   -3.7735903108E+00   -3.7647112565E+00   -3.7558738878E+00   -3.7470779118E+00
   -3.7383230385E+00   -3.7296089804E+00   -3.7209354527E+00   -3.7123021733E+00
   -3.7037088627E+00   -3.6951552441E+00   -3.6866410430E+00   -3.6781659875E+00
   -3.6697298085E+00   -3.6613322389E+00   -3.6529730143E+00   -3.6446518727E+00
   -3.6363685544E+00   -3.6281228022E+00   -3.6199143610E+00   -3.6117429782E+00
   -3.6036084035E+00   -3.5955103885E+00   -3.5874486875E+00   -3.5794230568E+00
   -3.5714332547E+00   -3.5634790419E+00   -3.5555601811E+00   -3.5476764373E+00
   -3.5398275772E+00   -3.5320133699E+00   -3.5242335865E+00   -3.5164879999E+00
   -3.5087763851E+00   -3.5010985192E+00   -3.4934541811E+00   -3.4858431516E+00
   -3.4782652136E+00   -3.4707201517E+00   -3.4632077523E+00   -3.4557278040E+00
   -3.4482800968E+00   -3.4408644227E+00   -3.4334805756E+00   -3.4261283510E+00
   -3.4188075461E+00   -3.4115179601E+00   -3.4042593935E+00   -3.3970316489E+00
   -3.3898345304E+00   -3.3826678437E+00   -3.3755313962E+00   -3.3684249969E+00
   -3.3613484564E+00   -3.3543015870E+00   -3.3472842024E+00   -3.3402961180E+00
   -3.3333371506E+00   -3.3264071187E+00   -3.3195058421E+00   -3.3126331423E+00
   -3.3057888420E+00   -3.2989727658E+00   -3.2921847392E+00   -3.2854245896E+00
   -3.2786921455E+00   -3.2719872371E+00   -3.2653096956E+00   -3.2586593539E+00
   -3.2520360462E+00   -3.2454396079E+00   -3.2388698759E+00   -3.2323266883E+00
   -3.2258098845E+00   -3.2193193053E+00   -3.2128547928E+00   -3.2064161902E+00
   -3.2000033420E+00   -3.1936160941E+00   -3.1872542933E+00   -3.1809177881E+00
   -3.1746064278E+00   -3.1683200630E+00   -3.1620585455E+00   -3.1558217283E+00
   -3.1496094656E+00   -3.1434216126E+00   -3.1372580258E+00   -3.1311185626E+00
   -3.1250030817E+00   -3.1189114429E+00   -3.1128435070E+00   -3.1067991360E+00
   -3.1007781928E+00   -3.0947805415E+00   -3.0888060472E+00   -3.0828545760E+00
   -3.0769259952E+00   -3.0710201729E+00   -3.0651369783E+00   -3.0592762816E+00
   -3.0534379540E+00   -3.0476218678E+00   -3.0418278960E+00   -3.0360559127E+00
   -3.0303057930E+00   -3.0245774130E+00   -3.0188706496E+00   -3.0131853806E+00
   -3.0075214849E+00   -3.0018788421E+00   -2.9962573328E+00   -2.9906568386E+00
   -2.9850772418E+00   -2.9795184256E+00   -2.9739802743E+00   -2.9684626727E+00
   -2.9629655067E+00   -2.9574886631E+00   -2.9520320292E+00   -2.9465954935E+00
   -2.9411789451E+00   -2.9357822739E+00   -2.9304053709E+00   -2.9250481275E+00
   -2.9197104361E+00   -2.9143921900E+00   -2.9090932829E+00   -2.9038136097E+00
   -2.8985530658E+00   -2.8933115474E+00   -2.8880889516E+00   -2.8828851759E+00
   -2.8777001189E+00   -2.8725336797E+00   -2.8673857583E+00   -2.8622562553E+00
   -2.8571450719E+00   -2.8520521103E+00   -2.8469772732E+00   -2.8419204640E+00
   -2.8368815867E+00   -2.8318605462E+00   -2.8268572480E+00   -2.8218715982E+00
   -2.8169035034E+00   -2.8119528713E+00   -2.8070196099E+00   -2.8021036279E+00
   -2.7972048347E+00   -2.7923231403E+00   -2.7874584553E+00   -2.7826106910E+00
   -2.7777797593E+00   -2.7729655726E+00   -2.7681680440E+00   -2.7633870873E+00
   -2.7586226167E+00   -2.7538745470E+00   -2.7491427938E+00   -2.7444272731E+00
   -2.7397279014E+00   -2.7350445961E+00   -2.7303772747E+00   -2.7257258557E+00
   -2.7210902578E+00   -2.7164704006E+00   -2.7118662040E+00   -2.7072775884E+00
   -2.7027044750E+00   -2.6981467853E+00   -2.6936044413E+00   -2.6890773658E+00
   -2.6845654819E+00   -2.6800687132E+00   -2.6755869839E+00   -2.6711202187E+00
   -2.6666683427E+00   -2.6622312817E+00   -2.6578089618E+00   -2.6534013096E+00
   -2.6490082524E+00   -2.6446297177E+00   -2.6402656337E+00   -2.6359159289E+00