<UPF version="2.0.1">
  <PP_INFO>

 This pseudopotential file has been produced using the code
 ONCVPSP  (Optimized Norm-Conservinng Vanderbilt PSeudopotential)
 fully-relativistic version 4.0.1 06/04/2019 by D. R. Hamann
 The code is available through a link at URL www.mat-simresearch.com.
 Documentation with the package provides a full discription of the
 input data below.


 While it is not required under the terms of the GNU GPL, it is
 suggested that you cite D. R. Hamann, Phys. Rev. B 88, 085117 (2013)
 in any publication using these pseudopotentials.

    <PP_INPUTFILE>
# ATOM AND REFERENCE CONFIGURATION
# atsym  z   nc   nv     iexc    psfile
  Ne 10.00    1    2       4      upf
#
#   n    l    f        energy (Ha)
    1    0    2.00
    2    0    2.00
    2    1    6.00
#
# PSEUDOPOTENTIAL AND OPTIMIZATION
# lmax
    1
#
#   l,   rc,     ep,   ncon, nbas, qcut
    0   2.61642   0.00000    5    8   7.96858
    1   2.63783   0.00000    5    8   6.60628
#
# LOCAL POTENTIAL
# lloc, lpopt,  rc(5),   dvloc0
    4    5   2.61477      0.00000
#
# VANDERBILT-KLEINMAN-BYLANDER PROJECTORs
# l, nproj, debl
    0    2   1.54861
    1    2   1.11000
#
# MODEL CORE CHARGE
# icmod, fcfact, rcfact
    0   0.00000   0.00000
#
# LOG DERIVATIVE ANALYSIS
# epsh1, epsh2, depsh
   -5.00    3.00    0.02
#
# OUTPUT GRID
# rlmax, drl
    6.00    0.01
#
# TEST CONFIGURATIONS
# ncnf
    0
# nvcnf
#   n    l    f
    </PP_INPUTFILE>
  </PP_INFO>
  <!--                               -->
  <!-- END OF HUMAN READABLE SECTION -->
  <!--                               -->
    <PP_HEADER
       generated="Generated using ONCVPSP code by D. R. Hamann"
       author="anonymous"
       date="220414"
       comment=""
       element="Ne"
       pseudo_type="NC"
       relativistic="full"
       is_ultrasoft="F"
       is_paw="F"
       is_coulomb="F"
       has_so="T"
       has_wfc="F"
       has_gipaw="F"
       core_correction="F"
       functional="PBE"
       z_valence="    8.00"
       total_psenergy="  -6.18373949922E+01"
       rho_cutoff="   7.53000000000E+00"
       l_max="1"
       l_local="-1"
       mesh_size="   754"
       number_of_wfc="3"
       number_of_proj="6"/>
 <PP_MESH>
   <PP_R type="real"  size=" 754" columns="8">
    0.0000    0.0100    0.0200    0.0300    0.0400    0.0500    0.0600    0.0700
    0.0800    0.0900    0.1000    0.1100    0.1200    0.1300    0.1400    0.1500
    0.1600    0.1700    0.1800    0.1900    0.2000    0.2100    0.2200    0.2300
    0.2400    0.2500    0.2600    0.2700    0.2800    0.2900    0.3000    0.3100
    0.3200    0.3300    0.3400    0.3500    0.3600    0.3700    0.3800    0.3900
    0.4000    0.4100    0.4200    0.4300    0.4400    0.4500    0.4600    0.4700
    0.4800    0.4900    0.5000    0.5100    0.5200    0.5300    0.5400    0.5500
    0.5600    0.5700    0.5800    0.5900    0.6000    0.6100    0.6200    0.6300
    0.6400    0.6500    0.6600    0.6700    0.6800    0.6900    0.7000    0.7100
    0.7200    0.7300    0.7400    0.7500    0.7600    0.7700    0.7800    0.7900
    0.8000    0.8100    0.8200    0.8300    0.8400    0.8500    0.8600    0.8700
    0.8800    0.8900    0.9000    0.9100    0.9200    0.9300    0.9400    0.9500
    0.9600    0.9700    0.9800    0.9900    1.0000    1.0100    1.0200    1.0300
    1.0400    1.0500    1.0600    1.0700    1.0800    1.0900    1.1000    1.1100
    1.1200    1.1300    1.1400    1.1500    1.1600    1.1700    1.1800    1.1900
    1.2000    1.2100    1.2200    1.2300    1.2400    1.2500    1.2600    1.2700
    1.2800    1.2900    1.3000    1.3100    1.3200    1.3300    1.3400    1.3500
    1.3600    1.3700    1.3800    1.3900    1.4000    1.4100    1.4200    1.4300
    1.4400    1.4500    1.4600    1.4700    1.4800    1.4900    1.5000    1.5100
    1.5200    1.5300    1.5400    1.5500    1.5600    1.5700    1.5800    1.5900
    1.6000    1.6100    1.6200    1.6300    1.6400    1.6500    1.6600    1.6700
    1.6800    1.6900    1.7000    1.7100    1.7200    1.7300    1.7400    1.7500
    1.7600    1.7700    1.7800    1.7900    1.8000    1.8100    1.8200    1.8300
    1.8400    1.8500    1.8600    1.8700    1.8800    1.8900    1.9000    1.9100
    1.9200    1.9300    1.9400    1.9500    1.9600    1.9700    1.9800    1.9900
    2.0000    2.0100    2.0200    2.0300    2.0400    2.0500    2.0600    2.0700
    2.0800    2.0900    2.1000    2.1100    2.1200    2.1300    2.1400    2.1500
    2.1600    2.1700    2.1800    2.1900    2.2000    2.2100    2.2200    2.2300
    2.2400    2.2500    2.2600    2.2700    2.2800    2.2900    2.3000    2.3100
    2.3200    2.3300    2.3400    2.3500    2.3600    2.3700    2.3800    2.3900
    2.4000    2.4100    2.4200    2.4300    2.4400    2.4500    2.4600    2.4700
    2.4800    2.4900    2.5000    2.5100    2.5200    2.5300    2.5400    2.5500
    2.5600    2.5700    2.5800    2.5900    2.6000    2.6100    2.6200    2.6300
    2.6400    2.6500    2.6600    2.6700    2.6800    2.6900    2.7000    2.7100
    2.7200    2.7300    2.7400    2.7500    2.7600    2.7700    2.7800    2.7900
    2.8000    2.8100    2.8200    2.8300    2.8400    2.8500    2.8600    2.8700
    2.8800    2.8900    2.9000    2.9100    2.9200    2.9300    2.9400    2.9500
    2.9600    2.9700    2.9800    2.9900    3.0000    3.0100    3.0200    3.0300
    3.0400    3.0500    3.0600    3.0700    3.0800    3.0900    3.1000    3.1100
    3.1200    3.1300    3.1400    3.1500    3.1600    3.1700    3.1800    3.1900
    3.2000    3.2100    3.2200    3.2300    3.2400    3.2500    3.2600    3.2700
    3.2800    3.2900    3.3000    3.3100    3.3200    3.3300    3.3400    3.3500
    3.3600    3.3700    3.3800    3.3900    3.4000    3.4100    3.4200    3.4300
    3.4400    3.4500    3.4600    3.4700    3.4800    3.4900    3.5000    3.5100
    3.5200    3.5300    3.5400    3.5500    3.5600    3.5700    3.5800    3.5900
    3.6000    3.6100    3.6200    3.6300    3.6400    3.6500    3.6600    3.6700
    3.6800    3.6900    3.7000    3.7100    3.7200    3.7300    3.7400    3.7500
    3.7600    3.7700    3.7800    3.7900    3.8000    3.8100    3.8200    3.8300
    3.8400    3.8500    3.8600    3.8700    3.8800    3.8900    3.9000    3.9100
    3.9200    3.9300    3.9400    3.9500    3.9600    3.9700    3.9800    3.9900
    4.0000    4.0100    4.0200    4.0300    4.0400    4.0500    4.0600    4.0700
    4.0800    4.0900    4.1000    4.1100    4.1200    4.1300    4.1400    4.1500
    4.1600    4.1700    4.1800    4.1900    4.2000    4.2100    4.2200    4.2300
    4.2400    4.2500    4.2600    4.2700    4.2800    4.2900    4.3000    4.3100
    4.3200    4.3300    4.3400    4.3500    4.3600    4.3700    4.3800    4.3900
    4.4000    4.4100    4.4200    4.4300    4.4400    4.4500    4.4600    4.4700
    4.4800    4.4900    4.5000    4.5100    4.5200    4.5300    4.5400    4.5500
    4.5600    4.5700    4.5800    4.5900    4.6000    4.6100    4.6200    4.6300
    4.6400    4.6500    4.6600    4.6700    4.6800    4.6900    4.7000    4.7100
    4.7200    4.7300    4.7400    4.7500    4.7600    4.7700    4.7800    4.7900
    4.8000    4.8100    4.8200    4.8300    4.8400    4.8500    4.8600    4.8700
    4.8800    4.8900    4.9000    4.9100    4.9200    4.9300    4.9400    4.9500
    4.9600    4.9700    4.9800    4.9900    5.0000    5.0100    5.0200    5.0300
    5.0400    5.0500    5.0600    5.0700    5.0800    5.0900    5.1000    5.1100
    5.1200    5.1300    5.1400    5.1500    5.1600    5.1700    5.1800    5.1900
    5.2000    5.2100    5.2200    5.2300    5.2400    5.2500    5.2600    5.2700
    5.2800    5.2900    5.3000    5.3100    5.3200    5.3300    5.3400    5.3500
    5.3600    5.3700    5.3800    5.3900    5.4000    5.4100    5.4200    5.4300
    5.4400    5.4500    5.4600    5.4700    5.4800    5.4900    5.5000    5.5100
    5.5200    5.5300    5.5400    5.5500    5.5600    5.5700    5.5800    5.5900
    5.6000    5.6100    5.6200    5.6300    5.6400    5.6500    5.6600    5.6700
    5.6800    5.6900    5.7000    5.7100    5.7200    5.7300    5.7400    5.7500
    5.7600    5.7700    5.7800    5.7900    5.8000    5.8100    5.8200    5.8300
    5.8400    5.8500    5.8600    5.8700    5.8800    5.8900    5.9000    5.9100
    5.9200    5.9300    5.9400    5.9500    5.9600    5.9700    5.9800    5.9900
    6.0000    6.0100    6.0200    6.0300    6.0400    6.0500    6.0600    6.0700
    6.0800    6.0900    6.1000    6.1100    6.1200    6.1300    6.1400    6.1500
    6.1600    6.1700    6.1800    6.1900    6.2000    6.2100    6.2200    6.2300
    6.2400    6.2500    6.2600    6.2700    6.2800    6.2900    6.3000    6.3100
    6.3200    6.3300    6.3400    6.3500    6.3600    6.3700    6.3800    6.3900
    6.4000    6.4100    6.4200    6.4300    6.4400    6.4500    6.4600    6.4700
    6.4800    6.4900    6.5000    6.5100    6.5200    6.5300    6.5400    6.5500
    6.5600    6.5700    6.5800    6.5900    6.6000    6.6100    6.6200    6.6300
    6.6400    6.6500    6.6600    6.6700    6.6800    6.6900    6.7000    6.7100
    6.7200    6.7300    6.7400    6.7500    6.7600    6.7700    6.7800    6.7900
    6.8000    6.8100    6.8200    6.8300    6.8400    6.8500    6.8600    6.8700
    6.8800    6.8900    6.9000    6.9100    6.9200    6.9300    6.9400    6.9500
    6.9600    6.9700    6.9800    6.9900    7.0000    7.0100    7.0200    7.0300
    7.0400    7.0500    7.0600    7.0700    7.0800    7.0900    7.1000    7.1100
    7.1200    7.1300    7.1400    7.1500    7.1600    7.1700    7.1800    7.1900
    7.2000    7.2100    7.2200    7.2300    7.2400    7.2500    7.2600    7.2700
    7.2800    7.2900    7.3000    7.3100    7.3200    7.3300    7.3400    7.3500
    7.3600    7.3700    7.3800    7.3900    7.4000    7.4100    7.4200    7.4300
    7.4400    7.4500    7.4600    7.4700    7.4800    7.4900    7.5000    7.5100
    7.5200    7.5300
   </PP_R>
   <PP_RAB type="real"  size=" 754" columns="8">
    0.0100    0.0100    0.0100    0.0100    0.0100    0.0100    0.0100    0.0100
    0.0100    0.0100    0.0100    0.0100    0.0100    0.0100    0.0100    0.0100
    0.0100    0.0100    0.0100    0.0100    0.0100    0.0100    0.0100    0.0100
    0.0100    0.0100    0.0100    0.0100    0.0100    0.0100    0.0100    0.0100
    0.0100    0.0100    0.0100    0.0100    0.0100    0.0100    0.0100    0.0100
    0.0100    0.0100    0.0100    0.0100    0.0100    0.0100    0.0100    0.0100
    0.0100    0.0100    0.0100    0.0100    0.0100    0.0100    0.0100    0.0100
    0.0100    0.0100    0.0100    0.0100    0.0100    0.0100    0.0100    0.0100
    0.0100    0.0100    0.0100    0.0100    0.0100    0.0100    0.0100    0.0100
    0.0100    0.0100    0.0100    0.0100    0.0100    0.0100    0.0100    0.0100
    0.0100    0.0100    0.0100    0.0100    0.0100    0.0100    0.0100    0.0100
    0.0100    0.0100    0.0100    0.0100    0.0100    0.0100    0.0100    0.0100
    0.0100    0.0100    0.0100    0.0100    0.0100    0.0100    0.0100    0.0100
    0.0100    0.0100    0.0100    0.0100    0.0100    0.0100    0.0100    0.0100
    0.0100    0.0100    0.0100    0.0100    0.0100    0.0100    0.0100    0.0100
    0.0100    0.0100    0.0100    0.0100    0.0100    0.0100    0.0100    0.0100
    0.0100    0.0100    0.0100    0.0100    0.0100    0.0100    0.0100    0.0100
    0.0100    0.0100    0.0100    0.0100    0.0100    0.0100    0.0100    0.0100
    0.0100    0.0100    0.0100    0.0100    0.0100    0.0100    0.0100    0.0100
    0.0100    0.0100    0.0100    0.0100    0.0100    0.0100    0.0100    0.0100
    0.0100    0.0100    0.0100    0.0100    0.0100    0.0100    0.0100    0.0100
    0.0100    0.0100    0.0100    0.0100    0.0100    0.0100    0.0100    0.0100
    0.0100    0.0100    0.0100    0.0100    0.0100    0.0100    0.0100    0.0100
    0.0100    0.0100    0.0100    0.0100    0.0100    0.0100    0.0100    0.0100
    0.0100    0.0100    0.0100    0.0100    0.0100    0.0100    0.0100    0.0100
    0.0100    0.0100    0.0100    0.0100    0.0100    0.0100    0.0100    0.0100
    0.0100    0.0100    0.0100    0.0100    0.0100    0.0100    0.0100    0.0100
    0.0100    0.0100    0.0100    0.0100    0.0100    0.0100    0.0100    0.0100
    0.0100    0.0100    0.0100    0.0100    0.0100    0.0100    0.0100    0.0100
    0.0100    0.0100    0.0100    0.0100    0.0100    0.0100    0.0100    0.0100
    0.0100    0.0100    0.0100    0.0100    0.0100    0.0100    0.0100    0.0100
    0.0100    0.0100    0.0100    0.0100    0.0100    0.0100    0.0100    0.0100
    0.0100    0.0100    0.0100    0.0100    0.0100    0.0100    0.0100    0.0100
    0.0100    0.0100    0.0100    0.0100    0.0100    0.0100    0.0100    0.0100
    0.0100    0.0100    0.0100    0.0100    0.0100    0.0100    0.0100    0.0100
    0.0100    0.0100    0.0100    0.0100    0.0100    0.0100    0.0100    0.0100
    0.0100    0.0100    0.0100    0.0100    0.0100    0.0100    0.0100    0.0100
    0.0100    0.0100    0.0100    0.0100    0.0100    0.0100    0.0100    0.0100
    0.0100    0.0100    0.0100    0.0100    0.0100    0.0100    0.0100    0.0100
    0.0100    0.0100    0.0100    0.0100    0.0100    0.0100    0.0100    0.0100
    0.0100    0.0100    0.0100    0.0100    0.0100    0.0100    0.0100    0.0100
    0.0100    0.0100    0.0100    0.0100    0.0100    0.0100    0.0100    0.0100
    0.0100    0.0100    0.0100    0.0100    0.0100    0.0100    0.0100    0.0100
    0.0100    0.0100    0.0100    0.0100    0.0100    0.0100    0.0100    0.0100
    0.0100    0.0100    0.0100    0.0100    0.0100    0.0100    0.0100    0.0100
    0.0100    0.0100    0.0100    0.0100    0.0100    0.0100    0.0100    0.0100
    0.0100    0.0100    0.0100    0.0100    0.0100    0.0100    0.0100    0.0100
    0.0100    0.0100    0.0100    0.0100    0.0100    0.0100    0.0100    0.0100
    0.0100    0.0100    0.0100    0.0100    0.0100    0.0100    0.0100    0.0100
    0.0100    0.0100    0.0100    0.0100    0.0100    0.0100    0.0100    0.0100
    0.0100    0.0100    0.0100    0.0100    0.0100    0.0100    0.0100    0.0100
    0.0100    0.0100    0.0100    0.0100    0.0100    0.0100    0.0100    0.0100
    0.0100    0.0100    0.0100    0.0100    0.0100    0.0100    0.0100    0.0100
    0.0100    0.0100    0.0100    0.0100    0.0100    0.0100    0.0100    0.0100
    0.0100    0.0100    0.0100    0.0100    0.0100    0.0100    0.0100    0.0100
    0.0100    0.0100    0.0100    0.0100    0.0100    0.0100    0.0100    0.0100
    0.0100    0.0100    0.0100    0.0100    0.0100    0.0100    0.0100    0.0100
    0.0100    0.0100    0.0100    0.0100    0.0100    0.0100    0.0100    0.0100
    0.0100    0.0100    0.0100    0.0100    0.0100    0.0100    0.0100    0.0100
    0.0100    0.0100    0.0100    0.0100    0.0100    0.0100    0.0100    0.0100
    0.0100    0.0100    0.0100    0.0100    0.0100    0.0100    0.0100    0.0100
    0.0100    0.0100    0.0100    0.0100    0.0100    0.0100    0.0100    0.0100
    0.0100    0.0100    0.0100    0.0100    0.0100    0.0100    0.0100    0.0100
    0.0100    0.0100    0.0100    0.0100    0.0100    0.0100    0.0100    0.0100
    0.0100    0.0100    0.0100    0.0100    0.0100    0.0100    0.0100    0.0100
    0.0100    0.0100    0.0100    0.0100    0.0100    0.0100    0.0100    0.0100
    0.0100    0.0100    0.0100    0.0100    0.0100    0.0100    0.0100    0.0100
    0.0100    0.0100    0.0100    0.0100    0.0100    0.0100    0.0100    0.0100
    0.0100    0.0100    0.0100    0.0100    0.0100    0.0100    0.0100    0.0100
    0.0100    0.0100    0.0100    0.0100    0.0100    0.0100    0.0100    0.0100
    0.0100    0.0100    0.0100    0.0100    0.0100    0.0100    0.0100    0.0100
    0.0100    0.0100    0.0100    0.0100    0.0100    0.0100    0.0100    0.0100
    0.0100    0.0100    0.0100    0.0100    0.0100    0.0100    0.0100    0.0100
    0.0100    0.0100    0.0100    0.0100    0.0100    0.0100    0.0100    0.0100
    0.0100    0.0100    0.0100    0.0100    0.0100    0.0100    0.0100    0.0100
    0.0100    0.0100    0.0100    0.0100    0.0100    0.0100    0.0100    0.0100
    0.0100    0.0100    0.0100    0.0100    0.0100    0.0100    0.0100    0.0100
    0.0100    0.0100    0.0100    0.0100    0.0100    0.0100    0.0100    0.0100
    0.0100    0.0100    0.0100    0.0100    0.0100    0.0100    0.0100    0.0100
    0.0100    0.0100    0.0100    0.0100    0.0100    0.0100    0.0100    0.0100
    0.0100    0.0100    0.0100    0.0100    0.0100    0.0100    0.0100    0.0100
    0.0100    0.0100    0.0100    0.0100    0.0100    0.0100    0.0100    0.0100
    0.0100    0.0100    0.0100    0.0100    0.0100    0.0100    0.0100    0.0100
    0.0100    0.0100    0.0100    0.0100    0.0100    0.0100    0.0100    0.0100
    0.0100    0.0100    0.0100    0.0100    0.0100    0.0100    0.0100    0.0100
    0.0100    0.0100    0.0100    0.0100    0.0100    0.0100    0.0100    0.0100
    0.0100    0.0100    0.0100    0.0100    0.0100    0.0100    0.0100    0.0100
    0.0100    0.0100    0.0100    0.0100    0.0100    0.0100    0.0100    0.0100
    0.0100    0.0100    0.0100    0.0100    0.0100    0.0100    0.0100    0.0100
    0.0100    0.0100    0.0100    0.0100    0.0100    0.0100    0.0100    0.0100
    0.0100    0.0100    0.0100    0.0100    0.0100    0.0100    0.0100    0.0100
    0.0100    0.0100    0.0100    0.0100    0.0100    0.0100    0.0100    0.0100
    0.0100    0.0100    0.0100    0.0100    0.0100    0.0100    0.0100    0.0100
    0.0100    0.0100    0.0100    0.0100    0.0100    0.0100    0.0100    0.0100
    0.0100    0.0100
   </PP_RAB>
 </PP_MESH>
  <PP_LOCAL type="real"  size=" 754" columns="4">
   -1.7802979838E+01   -1.7802650222E+01   -1.7801646203E+01   -1.7799923384E+01
   -1.7797411952E+01   -1.7794022412E+01   -1.7789652600E+01   -1.7784195194E+01
   -1.7777544975E+01   -1.7769605192E+01   -1.7760292606E+01   -1.7749540970E+01
   -1.7737302953E+01   -1.7723550610E+01   -1.7708274672E+01   -1.7691482923E+01
   -1.7673197987E+01   -1.7653454772E+01   -1.7632297821E+01   -1.7609778730E+01
   -1.7585953750E+01   -1.7560881661E+01   -1.7534621931E+01   -1.7507233191E+01
   -1.7478771995E+01   -1.7449291848E+01   -1.7418842467E+01   -1.7387469251E+01
   -1.7355212918E+01   -1.7322109284E+01   -1.7288189160E+01   -1.7253478342E+01
   -1.7217997687E+01   -1.7181763241E+01   -1.7144786430E+01   -1.7107074295E+01
   -1.7068629759E+01   -1.7029451939E+01   -1.6989536481E+01   -1.6948875926E+01
   -1.6907460099E+01   -1.6865276522E+01   -1.6822310845E+01   -1.6778547292E+01
   -1.6733969113E+01   -1.6688559052E+01   -1.6642299805E+01   -1.6595174475E+01
   -1.6547167018E+01   -1.6498262666E+01   -1.6448448322E+01   -1.6397712926E+01
   -1.6346047785E+01   -1.6293446847E+01   -1.6239906944E+01   -1.6185427965E+01
   -1.6130012990E+01   -1.6073668362E+01   -1.6016403706E+01   -1.5958231897E+01
   -1.5899168981E+01   -1.5839234052E+01   -1.5778449082E+01   -1.5716838732E+01
   -1.5654430124E+01   -1.5591252598E+01   -1.5527337452E+01   -1.5462717681E+01
   -1.5397427706E+01   -1.5331503109E+01   -1.5264980379E+01   -1.5197896668E+01
   -1.5130289559E+01   -1.5062196856E+01   -1.4993656389E+01   -1.4924705844E+01
   -1.4855382606E+01   -1.4785723627E+01   -1.4715765314E+01   -1.4645543430E+01
   -1.4575093019E+01   -1.4504448338E+01   -1.4433642813E+01   -1.4362709001E+01
   -1.4291678558E+01   -1.4220582230E+01   -1.4149449837E+01   -1.4078310273E+01
   -1.4007191505E+01   -1.3936120576E+01   -1.3865123616E+01   -1.3794225848E+01
   -1.3723451597E+01   -1.3652824301E+01   -1.3582366520E+01   -1.3512099943E+01
   -1.3442045399E+01   -1.3372222857E+01   -1.3302651436E+01   -1.3233349404E+01
   -1.3164334181E+01   -1.3095622334E+01   -1.3027229582E+01   -1.2959170782E+01
   -1.2891459929E+01   -1.2824110149E+01   -1.2757133685E+01   -1.2690541890E+01
   -1.2624345216E+01   -1.2558553202E+01   -1.2493174460E+01   -1.2428216661E+01
   -1.2363686526E+01   -1.2299589812E+01   -1.2235931297E+01   -1.2172714773E+01
   -1.2109943040E+01   -1.2047617890E+01   -1.1985740114E+01   -1.1924309492E+01
   -1.1863324804E+01   -1.1802783831E+01   -1.1742683374E+01   -1.1683019267E+01
   -1.1623786406E+01   -1.1564978779E+01   -1.1506589502E+01   -1.1448610873E+01
   -1.1391034415E+01   -1.1333850947E+01   -1.1277050650E+01   -1.1220623143E+01
   -1.1164557567E+01   -1.1108842675E+01   -1.1053466930E+01   -1.0998418601E+01
   -1.0943685869E+01   -1.0889256932E+01   -1.0835120112E+01   -1.0781263955E+01
   -1.0727677341E+01   -1.0674349578E+01   -1.0621270496E+01   -1.0568430535E+01
   -1.0515820822E+01   -1.0463433241E+01   -1.0411260493E+01   -1.0359296142E+01
   -1.0307534653E+01   -1.0255971418E+01   -1.0204602768E+01   -1.0153425976E+01
   -1.0102439246E+01   -1.0051641694E+01   -1.0001033319E+01   -9.9506149629E+00
   -9.9003882635E+00   -9.8503556020E+00   -9.8005200430E+00   -9.7508852708E+00
   -9.7014555222E+00   -9.6522355170E+00   -9.6032303879E+00   -9.5544456096E+00
   -9.5058869294E+00   -9.4575602993E+00   -9.4094718106E+00   -9.3616276317E+00
   -9.3140339491E+00   -9.2666969134E+00   -9.2196225888E+00   -9.1728169073E+00
   -9.1262856281E+00   -9.0800343013E+00   -9.0340682361E+00   -8.9883924743E+00
   -8.9430117672E+00   -8.8979305576E+00   -8.8531529655E+00   -8.8086827772E+00
   -8.7645234379E+00   -8.7206780478E+00   -8.6771493606E+00   -8.6339397848E+00
   -8.5910513869E+00   -8.5484858970E+00   -8.5062447152E+00   -8.4643289209E+00
   -8.4227392816E+00   -8.3814762637E+00   -8.3405400438E+00   -8.2999305206E+00
   -8.2596473268E+00   -8.2196898416E+00   -8.1800572034E+00   -8.1407483221E+00
   -8.1017618913E+00   -8.0630964006E+00   -8.0247501477E+00   -7.9867212490E+00
   -7.9490076516E+00   -7.9116071436E+00   -7.8745173643E+00   -7.8377358140E+00
   -7.8012598639E+00   -7.7650867647E+00   -7.7292136559E+00   -7.6936375738E+00
   -7.6583554606E+00   -7.6233641720E+00   -7.5886604860E+00   -7.5542411107E+00
   -7.5201026932E+00   -7.4862418279E+00   -7.4526550654E+00   -7.4193389217E+00
   -7.3862898879E+00   -7.3535044394E+00   -7.3209790468E+00   -7.2887101861E+00
   -7.2566943495E+00   -7.2249280566E+00   -7.1934078652E+00   -7.1621303831E+00
   -7.1310922788E+00   -7.1002902924E+00   -7.0697212468E+00   -7.0393820572E+00
   -7.0092697404E+00   -6.9793814244E+00   -6.9497143551E+00   -6.9202659034E+00
   -6.8910335707E+00   -6.8620149930E+00   -6.8332079435E+00   -6.8046103342E+00
   -6.7762202157E+00   -6.7480357753E+00   -6.7200553345E+00   -6.6922773439E+00
   -6.6647003777E+00   -6.6373231260E+00   -6.6101443870E+00   -6.5831630570E+00
   -6.5563781203E+00   -6.5297886375E+00   -6.5033937338E+00   -6.4771925865E+00
   -6.4511844118E+00   -6.4253684518E+00   -6.3997439605E+00   -6.3743101899E+00
   -6.3490663796E+00   -6.3240117443E+00   -6.2991454625E+00   -6.2744666606E+00
   -6.2499744016E+00   -6.2256676775E+00   -6.2015453975E+00   -6.1776063796E+00
   -6.1538493419E+00   -6.1302728960E+00   -6.1068755405E+00   -6.0836556515E+00
   -6.0606114879E+00   -6.0377412088E+00   -6.0150429016E+00   -5.9925146271E+00
   -5.9701544659E+00   -5.9479605411E+00   -5.9259310192E+00   -5.9040640797E+00
   -5.8823579269E+00   -5.8608107943E+00   -5.8394209411E+00   -5.8181866514E+00
   -5.7971062343E+00   -5.7761780233E+00   -5.7554003758E+00   -5.7347716728E+00
   -5.7142903186E+00   -5.6939547399E+00   -5.6737633859E+00   -5.6537147278E+00
   -5.6338072582E+00   -5.6140394908E+00   -5.5944099602E+00   -5.5749172215E+00
   -5.5555598496E+00   -5.5363364394E+00   -5.5172456051E+00   -5.4982859798E+00
   -5.4794562156E+00   -5.4607549827E+00   -5.4421809696E+00   -5.4237328826E+00
   -5.4054094453E+00   -5.3872093986E+00   -5.3691315003E+00   -5.3511745249E+00
   -5.3333372631E+00   -5.3156185217E+00   -5.2980171233E+00   -5.2805319062E+00
   -5.2631617238E+00   -5.2459054446E+00   -5.2287619518E+00   -5.2117301434E+00
   -5.1948089314E+00   -5.1779972421E+00   -5.1612940157E+00   -5.1446982057E+00
   -5.1282087794E+00   -5.1118247171E+00   -5.0955450121E+00   -5.0793686706E+00
   -5.0632947111E+00   -5.0473221649E+00   -5.0314500751E+00   -5.0156774971E+00
   -5.0000034978E+00   -4.9844271560E+00   -4.9689475618E+00   -4.9535638167E+00
   -4.9382750330E+00   -4.9230803343E+00   -4.9079788548E+00   -4.8929697392E+00
   -4.8780521426E+00   -4.8632252306E+00   -4.8484881787E+00   -4.8338401727E+00
   -4.8192804077E+00   -4.8048080888E+00   -4.7904224305E+00   -4.7761226568E+00
   -4.7619080009E+00   -4.7477777050E+00   -4.7337310204E+00   -4.7197672070E+00
   -4.7058855338E+00   -4.6920852781E+00   -4.6783657256E+00   -4.6647261706E+00
   -4.6511659153E+00   -4.6376842701E+00   -4.6242805536E+00   -4.6109540919E+00
   -4.5977042191E+00   -4.5845302768E+00   -4.5714316141E+00   -4.5584075877E+00
   -4.5454575614E+00   -4.5325809064E+00   -4.5197770008E+00   -4.5070452299E+00
   -4.4943849857E+00   -4.4817956673E+00   -4.4692766802E+00   -4.4568274367E+00
   -4.4444473557E+00   -4.4321358624E+00   -4.4198923883E+00   -4.4077163714E+00
   -4.3956072556E+00   -4.3835644911E+00   -4.3715875340E+00   -4.3596758463E+00
   -4.3478288961E+00   -4.3360461570E+00   -4.3243271083E+00   -4.3126712350E+00
   -4.3010780276E+00   -4.2895469822E+00   -4.2780776001E+00   -4.2666693880E+00
   -4.2553218578E+00   -4.2440345266E+00   -4.2328069168E+00   -4.2216385555E+00
   -4.2105289750E+00   -4.1994777124E+00   -4.1884843099E+00   -4.1775483141E+00
   -4.1666692765E+00   -4.1558467534E+00   -4.1450803055E+00   -4.1343694981E+00
   -4.1237139010E+00   -4.1131130885E+00   -4.1025666390E+00   -4.0920741355E+00
   -4.0816351652E+00   -4.0712493193E+00   -4.0609161934E+00   -4.0506353871E+00
   -4.0404065041E+00   -4.0302291519E+00   -4.0201029421E+00   -4.0100274902E+00
   -4.0000024156E+00   -3.9900273412E+00   -3.9801018941E+00   -3.9702257048E+00
   -3.9603984074E+00   -3.9506196398E+00   -3.9408890435E+00   -3.9312062634E+00
   -3.9215709478E+00   -3.9119827487E+00   -3.9024413212E+00   -3.8929463240E+00
   -3.8834974190E+00   -3.8740942714E+00   -3.8647365495E+00   -3.8554239251E+00
   -3.8461560729E+00   -3.8369326708E+00   -3.8277533998E+00   -3.8186179439E+00
   -3.8095259901E+00   -3.8004772285E+00   -3.7914713520E+00   -3.7825080565E+00
   -3.7735870406E+00   -3.7647080059E+00   -3.7558706569E+00   -3.7470747005E+00
   -3.7383198468E+00   -3.7296058081E+00   -3.7209322999E+00   -3.7122990400E+00
   -3.7037057488E+00   -3.6951521495E+00   -3.6866379677E+00   -3.6781629315E+00
   -3.6697267716E+00   -3.6613292212E+00   -3.6529700157E+00   -3.6446488931E+00
   -3.6363655938E+00   -3.6281198605E+00   -3.6199114382E+00   -3.6117400742E+00
   -3.6036055181E+00   -3.5955075219E+00   -3.5874458395E+00   -3.5794202273E+00
   -3.5714304437E+00   -3.5634762493E+00   -3.5555574069E+00   -3.5476736813E+00
   -3.5398248394E+00   -3.5320106503E+00   -3.5242308849E+00   -3.5164853162E+00
   -3.5087737194E+00   -3.5010958713E+00   -3.4934515509E+00   -3.4858405392E+00
   -3.4782626188E+00   -3.4707175744E+00   -3.4632051925E+00   -3.4557252615E+00
   -3.4482775716E+00   -3.4408619148E+00   -3.4334780848E+00   -3.4261258772E+00
   -3.4188050894E+00   -3.4115155202E+00   -3.4042569705E+00   -3.3970292426E+00
   -3.3898321408E+00   -3.3826654706E+00   -3.3755290396E+00   -3.3684226567E+00
   -3.3613461325E+00   -3.3542992794E+00   -3.3472819109E+00   -3.3402938426E+00
   -3.3333348912E+00   -3.3264048752E+00   -3.3195036144E+00   -3.3126309303E+00
   -3.3057866457E+00   -3.2989705850E+00   -3.2921825739E+00   -3.2854224396E+00
   -3.2786900109E+00   -3.2719851176E+00   -3.2653075913E+00   -3.2586572647E+00
   -3.2520339719E+00   -3.2454375485E+00   -3.2388678313E+00   -3.2323246584E+00
   -3.2258078692E+00   -3.2193173046E+00   -3.2128528065E+00   -3.2064142182E+00
   -3.2000013843E+00   -3.1936141506E+00   -3.1872523640E+00   -3.1809158728E+00
   -3.1746045264E+00   -3.1683181754E+00   -3.1620566717E+00   -3.1558198682E+00
   -3.1496076191E+00   -3.1434197796E+00   -3.1372562062E+00   -3.1311167564E+00
   -3.1250012888E+00   -3.1189096632E+00   -3.1128417404E+00   -3.1067973824E+00
   -3.1007764521E+00   -3.0947788137E+00   -3.0888043322E+00   -3.0828528737E+00
   -3.0769243055E+00   -3.0710184957E+00   -3.0651353136E+00   -3.0592746293E+00
   -3.0534363140E+00   -3.0476202400E+00   -3.0418262803E+00   -3.0360543091E+00
   -3.0303042014E+00   -3.0245758333E+00   -3.0188690817E+00   -3.0131838245E+00
   -3.0075199404E+00   -3.0018773092E+00   -2.9962558114E+00   -2.9906553287E+00
   -2.9850757432E+00   -2.9795169384E+00   -2.9739787982E+00   -2.9684612078E+00
   -2.9629640529E+00   -2.9574872203E+00   -2.9520305973E+00   -2.9465940724E+00
   -2.9411775348E+00   -2.9357808744E+00   -2.9304039820E+00   -2.9250467492E+00
   -2.9197090683E+00   -2.9143908326E+00   -2.9090919359E+00   -2.9038122730E+00
   -2.8985517393E+00   -2.8933102310E+00   -2.8880876452E+00   -2.8828838796E+00
   -2.8776988325E+00   -2.8725324032E+00   -2.8673844916E+00   -2.8622549984E+00
   -2.8571438247E+00   -2.8520508727E+00   -2.8469760451E+00   -2.8419192454E+00
   -2.8368803775E+00   -2.8318593464E+00   -2.8268560575E+00   -2.8218704169E+00
   -2.8169023313E+00   -2.8119517083E+00   -2.8070184559E+00   -2.8021024829E+00
   -2.7972036986E+00   -2.7923220131E+00   -2.7874573369E+00   -2.7826095814E+00
   -2.7777786583E+00   -2.7729644803E+00   -2.7681669603E+00   -2.7633860121E+00
   -2.7586215499E+00   -2.7538734886E+00   -2.7491417438E+00   -2.7444262313E+00
   -2.7397268679E+00   -2.7350435707E+00   -2.7303762574E+00   -2.7257248465E+00
   -2.7210892567E+00   -2.7164694074E+00   -2.7118652187E+00   -2.7072766110E+00
   -2.7027035053E+00   -2.6981458234E+00   -2.6936034871E+00   -2.6890764193E+00
   -2.6845645429E+00   -2.6800677818E+00   -2.6755860599E+00   -2.6711193022E+00
   -2.6666674336E+00   -2.6622303799E+00   -2.6578080673E+00   -2.6534004224E+00
   -2.6490073724E+00   -2.6446288449E+00   -2.6402647679E+00   -2.6359150702E+00