<UPF version="2.0.1">
  <PP_INFO>

 This pseudopotential file has been produced using the code
 ONCVPSP  (Optimized Norm-Conservinng Vanderbilt PSeudopotential)
 fully-relativistic version 4.0.1 06/04/2019 by D. R. Hamann
 The code is available through a link at URL www.mat-simresearch.com.
 Documentation with the package provides a full discription of the
 input data below.


 While it is not required under the terms of the GNU GPL, it is
 suggested that you cite D. R. Hamann, Phys. Rev. B 88, 085117 (2013)
 in any publication using these pseudopotentials.

    <PP_INPUTFILE>
# ATOM AND REFERENCE CONFIGURATION
# atsym  z   nc   nv     iexc    psfile
  O  8.00    1    2       4      upf
#
#   n    l    f        energy (Ha)
    1    0    2.00
    2    0    2.00
    2    1    4.00
#
# PSEUDOPOTENTIAL AND OPTIMIZATION
# lmax
    1
#
#   l,   rc,     ep,   ncon, nbas, qcut
    0   1.28705   0.00000    5    8   8.98916
    1   1.46383   0.00000    5    8   9.14990
#
# LOCAL POTENTIAL
# lloc, lpopt,  rc(5),   dvloc0
    4    5   0.89909      0.00000
#
# VANDERBILT-KLEINMAN-BYLANDER PROJECTORs
# l, nproj, debl
    0    2   1.51851
    1    2   1.53631
#
# MODEL CORE CHARGE
# icmod, fcfact, rcfact
    0   0.00000   0.00000
#
# LOG DERIVATIVE ANALYSIS
# epsh1, epsh2, depsh
   -5.00    3.00    0.02
#
# OUTPUT GRID
# rlmax, drl
    6.00    0.01
#
# TEST CONFIGURATIONS
# ncnf
    0
# nvcnf
#   n    l    f
    </PP_INPUTFILE>
  </PP_INFO>
  <!--                               -->
  <!-- END OF HUMAN READABLE SECTION -->
  <!--                               -->
    <PP_HEADER
       generated="Generated using ONCVPSP code by D. R. Hamann"
       author="anonymous"
       date="220414"
       comment=""
       element="O "
       pseudo_type="NC"
       relativistic="full"
       is_ultrasoft="F"
       is_paw="F"
       is_coulomb="F"
       has_so="T"
       has_wfc="F"
       has_gipaw="F"
       core_correction="F"
       functional="PBE"
       z_valence="    6.00"
       total_psenergy="  -3.14374945054E+01"
       rho_cutoff="   9.29000000000E+00"
       l_max="1"
       l_local="-1"
       mesh_size="   930"
       number_of_wfc="3"
       number_of_proj="6"/>
 <PP_MESH>
   <PP_R type="real"  size=" 930" columns="8">
    0.0000    0.0100    0.0200    0.0300    0.0400    0.0500    0.0600    0.0700
    0.0800    0.0900    0.1000    0.1100    0.1200    0.1300    0.1400    0.1500
    0.1600    0.1700    0.1800    0.1900    0.2000    0.2100    0.2200    0.2300
    0.2400    0.2500    0.2600    0.2700    0.2800    0.2900    0.3000    0.3100
    0.3200    0.3300    0.3400    0.3500    0.3600    0.3700    0.3800    0.3900
    0.4000    0.4100    0.4200    0.4300    0.4400    0.4500    0.4600    0.4700
    0.4800    0.4900    0.5000    0.5100    0.5200    0.5300    0.5400    0.5500
    0.5600    0.5700    0.5800    0.5900    0.6000    0.6100    0.6200    0.6300
    0.6400    0.6500    0.6600    0.6700    0.6800    0.6900    0.7000    0.7100
    0.7200    0.7300    0.7400    0.7500    0.7600    0.7700    0.7800    0.7900
    0.8000    0.8100    0.8200    0.8300    0.8400    0.8500    0.8600    0.8700
    0.8800    0.8900    0.9000    0.9100    0.9200    0.9300    0.9400    0.9500
    0.9600    0.9700    0.9800    0.9900    1.0000    1.0100    1.0200    1.0300
    1.0400    1.0500    1.0600    1.0700    1.0800    1.0900    1.1000    1.1100
    1.1200    1.1300    1.1400    1.1500    1.1600    1.1700    1.1800    1.1900
    1.2000    1.2100    1.2200    1.2300    1.2400    1.2500    1.2600    1.2700
    1.2800    1.2900    1.3000    1.3100    1.3200    1.3300    1.3400    1.3500
    1.3600    1.3700    1.3800    1.3900    1.4000    1.4100    1.4200    1.4300
    1.4400    1.4500    1.4600    1.4700    1.4800    1.4900    1.5000    1.5100
    1.5200    1.5300    1.5400    1.5500    1.5600    1.5700    1.5800    1.5900
    1.6000    1.6100    1.6200    1.6300    1.6400    1.6500    1.6600    1.6700
    1.6800    1.6900    1.7000    1.7100    1.7200    1.7300    1.7400    1.7500
    1.7600    1.7700    1.7800    1.7900    1.8000    1.8100    1.8200    1.8300
    1.8400    1.8500    1.8600    1.8700    1.8800    1.8900    1.9000    1.9100
    1.9200    1.9300    1.9400    1.9500    1.9600    1.9700    1.9800    1.9900
    2.0000    2.0100    2.0200    2.0300    2.0400    2.0500    2.0600    2.0700
    2.0800    2.0900    2.1000    2.1100    2.1200    2.1300    2.1400    2.1500
    2.1600    2.1700    2.1800    2.1900    2.2000    2.2100    2.2200    2.2300
    2.2400    2.2500    2.2600    2.2700    2.2800    2.2900    2.3000    2.3100
    2.3200    2.3300    2.3400    2.3500    2.3600    2.3700    2.3800    2.3900
    2.4000    2.4100    2.4200    2.4300    2.4400    2.4500    2.4600    2.4700
    2.4800    2.4900    2.5000    2.5100    2.5200    2.5300    2.5400    2.5500
    2.5600    2.5700    2.5800    2.5900    2.6000    2.6100    2.6200    2.6300
    2.6400    2.6500    2.6600    2.6700    2.6800    2.6900    2.7000    2.7100
    2.7200    2.7300    2.7400    2.7500    2.7600    2.7700    2.7800    2.7900
    2.8000    2.8100    2.8200    2.8300    2.8400    2.8500    2.8600    2.8700
    2.8800    2.8900    2.9000    2.9100    2.9200    2.9300    2.9400    2.9500
    2.9600    2.9700    2.9800    2.9900    3.0000    3.0100    3.0200    3.0300
    3.0400    3.0500    3.0600    3.0700    3.0800    3.0900    3.1000    3.1100
    3.1200    3.1300    3.1400    3.1500    3.1600    3.1700    3.1800    3.1900
    3.2000    3.2100    3.2200    3.2300    3.2400    3.2500    3.2600    3.2700
    3.2800    3.2900    3.3000    3.3100    3.3200    3.3300    3.3400    3.3500
    3.3600    3.3700    3.3800    3.3900    3.4000    3.4100    3.4200    3.4300
    3.4400    3.4500    3.4600    3.4700    3.4800    3.4900    3.5000    3.5100
    3.5200    3.5300    3.5400    3.5500    3.5600    3.5700    3.5800    3.5900
    3.6000    3.6100    3.6200    3.6300    3.6400    3.6500    3.6600    3.6700
    3.6800    3.6900    3.7000    3.7100    3.7200    3.7300    3.7400    3.7500
    3.7600    3.7700    3.7800    3.7900    3.8000    3.8100    3.8200    3.8300
    3.8400    3.8500    3.8600    3.8700    3.8800    3.8900    3.9000    3.9100
    3.9200    3.9300    3.9400    3.9500    3.9600    3.9700    3.9800    3.9900
    4.0000    4.0100    4.0200    4.0300    4.0400    4.0500    4.0600    4.0700
    4.0800    4.0900    4.1000    4.1100    4.1200    4.1300    4.1400    4.1500
    4.1600    4.1700    4.1800    4.1900    4.2000    4.2100    4.2200    4.2300
    4.2400    4.2500    4.2600    4.2700    4.2800    4.2900    4.3000    4.3100
    4.3200    4.3300    4.3400    4.3500    4.3600    4.3700    4.3800    4.3900
    4.4000    4.4100    4.4200    4.4300    4.4400    4.4500    4.4600    4.4700
    4.4800    4.4900    4.5000    4.5100    4.5200    4.5300    4.5400    4.5500
    4.5600    4.5700    4.5800    4.5900    4.6000    4.6100    4.6200    4.6300
    4.6400    4.6500    4.6600    4.6700    4.6800    4.6900    4.7000    4.7100
    4.7200    4.7300    4.7400    4.7500    4.7600    4.7700    4.7800    4.7900
    4.8000    4.8100    4.8200    4.8300    4.8400    4.8500    4.8600    4.8700
    4.8800    4.8900    4.9000    4.9100    4.9200    4.9300    4.9400    4.9500
    4.9600    4.9700    4.9800    4.9900    5.0000    5.0100    5.0200    5.0300
    5.0400    5.0500    5.0600    5.0700    5.0800    5.0900    5.1000    5.1100
    5.1200    5.1300    5.1400    5.1500    5.1600    5.1700    5.1800    5.1900
    5.2000    5.2100    5.2200    5.2300    5.2400    5.2500    5.2600    5.2700
    5.2800    5.2900    5.3000    5.3100    5.3200    5.3300    5.3400    5.3500
    5.3600    5.3700    5.3800    5.3900    5.4000    5.4100    5.4200    5.4300
    5.4400    5.4500    5.4600    5.4700    5.4800    5.4900    5.5000    5.5100
    5.5200    5.5300    5.5400    5.5500    5.5600    5.5700    5.5800    5.5900
    5.6000    5.6100    5.6200    5.6300    5.6400    5.6500    5.6600    5.6700
    5.6800    5.6900    5.7000    5.7100    5.7200    5.7300    5.7400    5.7500
    5.7600    5.7700    5.7800    5.7900    5.8000    5.8100    5.8200    5.8300
    5.8400    5.8500    5.8600    5.8700    5.8800    5.8900    5.9000    5.9100
    5.9200    5.9300    5.9400    5.9500    5.9600    5.9700    5.9800    5.9900
    6.0000    6.0100    6.0200    6.0300    6.0400    6.0500    6.0600    6.0700
    6.0800    6.0900    6.1000    6.1100    6.1200    6.1300    6.1400    6.1500
    6.1600    6.1700    6.1800    6.1900    6.2000    6.2100    6.2200    6.2300
    6.2400    6.2500    6.2600    6.2700    6.2800    6.2900    6.3000    6.3100
    6.3200    6.3300    6.3400    6.3500    6.3600    6.3700    6.3800    6.3900
    6.4000    6.4100    6.4200    6.4300    6.4400    6.4500    6.4600    6.4700
    6.4800    6.4900    6.5000    6.5100    6.5200    6.5300    6.5400    6.5500
    6.5600    6.5700    6.5800    6.5900    6.6000    6.6100    6.6200    6.6300
    6.6400    6.6500    6.6600    6.6700    6.6800    6.6900    6.7000    6.7100
    6.7200    6.7300    6.7400    6.7500    6.7600    6.7700    6.7800    6.7900
    6.8000    6.8100    6.8200    6.8300    6.8400    6.8500    6.8600    6.8700
    6.8800    6.8900    6.9000    6.9100    6.9200    6.9300    6.9400    6.9500
    6.9600    6.9700    6.9800    6.9900    7.0000    7.0100    7.0200    7.0300
    7.0400    7.0500    7.0600    7.0700    7.0800    7.0900    7.1000    7.1100
    7.1200    7.1300    7.1400    7.1500    7.1600    7.1700    7.1800    7.1900
    7.2000    7.2100    7.2200    7.2300    7.2400    7.2500    7.2600    7.2700
    7.2800    7.2900    7.3000    7.3100    7.3200    7.3300    7.3400    7.3500
    7.3600    7.3700    7.3800    7.3900    7.4000    7.4100    7.4200    7.4300
    7.4400    7.4500    7.4600    7.4700    7.4800    7.4900    7.5000    7.5100
    7.5200    7.5300    7.5400    7.5500    7.5600    7.5700    7.5800    7.5900
    7.6000    7.6100    7.6200    7.6300    7.6400    7.6500    7.6600    7.6700
    7.6800    7.6900    7.7000    7.7100    7.7200    7.7300    7.7400    7.7500
    7.7600    7.7700    7.7800    7.7900    7.8000    7.8100    7.8200    7.8300
    7.8400    7.8500    7.8600    7.8700    7.8800    7.8900    7.9000    7.9100
    7.9200    7.9300    7.9400    7.9500    7.9600    7.9700    7.9800    7.9900
    8.0000    8.0100    8.0200    8.0300    8.0400    8.0500    8.0600    8.0700
    8.0800    8.0900    8.1000    8.1100    8.1200    8.1300    8.1400    8.1500
    8.1600    8.1700    8.1800    8.1900    8.2000    8.2100    8.2200    8.2300
    8.2400    8.2500    8.2600    8.2700    8.2800    8.2900    8.3000    8.3100
    8.3200    8.3300    8.3400    8.3500    8.3600    8.3700    8.3800    8.3900
    8.4000    8.4100    8.4200    8.4300    8.4400    8.4500    8.4600    8.4700
    8.4800    8.4900    8.5000    8.5100    8.5200    8.5300    8.5400    8.5500
    8.5600    8.5700    8.5800    8.5900    8.6000    8.6100    8.6200    8.6300
    8.6400    8.6500    8.6600    8.6700    8.6800    8.6900    8.7000    8.7100
    8.7200    8.7300    8.7400    8.7500    8.7600    8.7700    8.7800    8.7900
    8.8000    8.8100    8.8200    8.8300    8.8400    8.8500    8.8600    8.8700
    8.8800    8.8900    8.9000    8.9100    8.9200    8.9300    8.9400    8.9500
    8.9600    8.9700    8.9800    8.9900    9.0000    9.0100    9.0200    9.0300
    9.0400    9.0500    9.0600    9.0700    9.0800    9.0900    9.1000    9.1100
    9.1200    9.1300    9.1400    9.1500    9.1600    9.1700    9.1800    9.1900
    9.2000    9.2100    9.2200    9.2300    9.2400    9.2500    9.2600    9.2700
    9.2800    9.2900
   </PP_R>
   <PP_RAB type="real"  size=" 930" columns="8">
    0.0100    0.0100    0.0100    0.0100    0.0100    0.0100    0.0100    0.0100
    0.0100    0.0100    0.0100    0.0100    0.0100    0.0100    0.0100    0.0100
    0.0100    0.0100    0.0100    0.0100    0.0100    0.0100    0.0100    0.0100
    0.0100    0.0100    0.0100    0.0100    0.0100    0.0100    0.0100    0.0100
    0.0100    0.0100    0.0100    0.0100    0.0100    0.0100    0.0100    0.0100
    0.0100    0.0100    0.0100    0.0100    0.0100    0.0100    0.0100    0.0100
    0.0100    0.0100    0.0100    0.0100    0.0100    0.0100    0.0100    0.0100
    0.0100    0.0100    0.0100    0.0100    0.0100    0.0100    0.0100    0.0100
    0.0100    0.0100    0.0100    0.0100    0.0100    0.0100    0.0100    0.0100
    0.0100    0.0100    0.0100    0.0100    0.0100    0.0100    0.0100    0.0100
    0.0100    0.0100    0.0100    0.0100    0.0100    0.0100    0.0100    0.0100
    0.0100    0.0100    0.0100    0.0100    0.0100    0.0100    0.0100    0.0100
    0.0100    0.0100    0.0100    0.0100    0.0100    0.0100    0.0100    0.0100
    0.0100    0.0100    0.0100    0.0100    0.0100    0.0100    0.0100    0.0100
    0.0100    0.0100    0.0100    0.0100    0.0100    0.0100    0.0100    0.0100
    0.0100    0.0100    0.0100    0.0100    0.0100    0.0100    0.0100    0.0100
    0.0100    0.0100    0.0100    0.0100    0.0100    0.0100    0.0100    0.0100
    0.0100    0.0100    0.0100    0.0100    0.0100    0.0100    0.0100    0.0100
    0.0100    0.0100    0.0100    0.0100    0.0100    0.0100    0.0100    0.0100
    0.0100    0.0100    0.0100    0.0100    0.0100    0.0100    0.0100    0.0100
    0.0100    0.0100    0.0100    0.0100    0.0100    0.0100    0.0100    0.0100
    0.0100    0.0100    0.0100    0.0100    0.0100    0.0100    0.0100    0.0100
    0.0100    0.0100    0.0100    0.0100    0.0100    0.0100    0.0100    0.0100
    0.0100    0.0100    0.0100    0.0100    0.0100    0.0100    0.0100    0.0100
    0.0100    0.0100    0.0100    0.0100    0.0100    0.0100    0.0100    0.0100
    0.0100    0.0100    0.0100    0.0100    0.0100    0.0100    0.0100    0.0100
    0.0100    0.0100    0.0100    0.0100    0.0100    0.0100    0.0100    0.0100
    0.0100    0.0100    0.0100    0.0100    0.0100    0.0100    0.0100    0.0100
    0.0100    0.0100    0.0100    0.0100    0.0100    0.0100    0.0100    0.0100
    0.0100    0.0100    0.0100    0.0100    0.0100    0.0100    0.0100    0.0100
    0.0100    0.0100    0.0100    0.0100    0.0100    0.0100    0.0100    0.0100
    0.0100    0.0100    0.0100    0.0100    0.0100    0.0100    0.0100    0.0100
    0.0100    0.0100    0.0100    0.0100    0.0100    0.0100    0.0100    0.0100
    0.0100    0.0100    0.0100    0.0100    0.0100    0.0100    0.0100    0.0100
    0.0100    0.0100    0.0100    0.0100    0.0100    0.0100    0.0100    0.0100
    0.0100    0.0100    0.0100    0.0100    0.0100    0.0100    0.0100    0.0100
    0.0100    0.0100    0.0100    0.0100    0.0100    0.0100    0.0100    0.0100
    0.0100    0.0100    0.0100    0.0100    0.0100    0.0100    0.0100    0.0100
    0.0100    0.0100    0.0100    0.0100    0.0100    0.0100    0.0100    0.0100
    0.0100    0.0100    0.0100    0.0100    0.0100    0.0100    0.0100    0.0100
    0.0100    0.0100    0.0100    0.0100    0.0100    0.0100    0.0100    0.0100
    0.0100    0.0100    0.0100    0.0100    0.0100    0.0100    0.0100    0.0100
    0.0100    0.0100    0.0100    0.0100    0.0100    0.0100    0.0100    0.0100
    0.0100    0.0100    0.0100    0.0100    0.0100    0.0100    0.0100    0.0100
    0.0100    0.0100    0.0100    0.0100    0.0100    0.0100    0.0100    0.0100
    0.0100    0.0100    0.0100    0.0100    0.0100    0.0100    0.0100    0.0100
    0.0100    0.0100    0.0100    0.0100    0.0100    0.0100    0.0100    0.0100
    0.0100    0.0100    0.0100    0.0100    0.0100    0.0100    0.0100    0.0100
    0.0100    0.0100    0.0100    0.0100    0.0100    0.0100    0.0100    0.0100
    0.0100    0.0100    0.0100    0.0100    0.0100    0.0100    0.0100    0.0100
    0.0100    0.0100    0.0100    0.0100    0.0100    0.0100    0.0100    0.0100
    0.0100    0.0100    0.0100    0.0100    0.0100    0.0100    0.0100    0.0100
    0.0100    0.0100    0.0100    0.0100    0.0100    0.0100    0.0100    0.0100
    0.0100    0.0100    0.0100    0.0100    0.0100    0.0100    0.0100    0.0100
    0.0100    0.0100    0.0100    0.0100    0.0100    0.0100    0.0100    0.0100
    0.0100    0.0100    0.0100    0.0100    0.0100    0.0100    0.0100    0.0100
    0.0100    0.0100    0.0100    0.0100    0.0100    0.0100    0.0100    0.0100
    0.0100    0.0100    0.0100    0.0100    0.0100    0.0100    0.0100    0.0100
    0.0100    0.0100    0.0100    0.0100    0.0100    0.0100    0.0100    0.0100
    0.0100    0.0100    0.0100    0.0100    0.0100    0.0100    0.0100    0.0100
    0.0100    0.0100    0.0100    0.0100    0.0100    0.0100    0.0100    0.0100
    0.0100    0.0100    0.0100    0.0100    0.0100    0.0100    0.0100    0.0100
    0.0100    0.0100    0.0100    0.0100    0.0100    0.0100    0.0100    0.0100
    0.0100    0.0100    0.0100    0.0100    0.0100    0.0100    0.0100    0.0100
    0.0100    0.0100    0.0100    0.0100    0.0100    0.0100    0.0100    0.0100
    0.0100    0.0100    0.0100    0.0100    0.0100    0.0100    0.0100    0.0100
    0.0100    0.0100    0.0100    0.0100    0.0100    0.0100    0.0100    0.0100
    0.0100    0.0100    0.0100    0.0100    0.0100    0.0100    0.0100    0.0100
    0.0100    0.0100    0.0100    0.0100    0.0100    0.0100    0.0100    0.0100
    0.0100    0.0100    0.0100    0.0100    0.0100    0.0100    0.0100    0.0100
    0.0100    0.0100    0.0100    0.0100    0.0100    0.0100    0.0100    0.0100
    0.0100    0.0100    0.0100    0.0100    0.0100    0.0100    0.0100    0.0100
    0.0100    0.0100    0.0100    0.0100    0.0100    0.0100    0.0100    0.0100
    0.0100    0.0100    0.0100    0.0100    0.0100    0.0100    0.0100    0.0100
    0.0100    0.0100    0.0100    0.0100    0.0100    0.0100    0.0100    0.0100
    0.0100    0.0100    0.0100    0.0100    0.0100    0.0100    0.0100    0.0100
    0.0100    0.0100    0.0100    0.0100    0.0100    0.0100    0.0100    0.0100
    0.0100    0.0100    0.0100    0.0100    0.0100    0.0100    0.0100    0.0100
    0.0100    0.0100    0.0100    0.0100    0.0100    0.0100    0.0100    0.0100
    0.0100    0.0100    0.0100    0.0100    0.0100    0.0100    0.0100    0.0100
    0.0100    0.0100    0.0100    0.0100    0.0100    0.0100    0.0100    0.0100
    0.0100    0.0100    0.0100    0.0100    0.0100    0.0100    0.0100    0.0100
    0.0100    0.0100    0.0100    0.0100    0.0100    0.0100    0.0100    0.0100
    0.0100    0.0100    0.0100    0.0100    0.0100    0.0100    0.0100    0.0100
    0.0100    0.0100    0.0100    0.0100    0.0100    0.0100    0.0100    0.0100
    0.0100    0.0100    0.0100    0.0100    0.0100    0.0100    0.0100    0.0100
    0.0100    0.0100    0.0100    0.0100    0.0100    0.0100    0.0100    0.0100
    0.0100    0.0100    0.0100    0.0100    0.0100    0.0100    0.0100    0.0100
    0.0100    0.0100    0.0100    0.0100    0.0100    0.0100    0.0100    0.0100
    0.0100    0.0100    0.0100    0.0100    0.0100    0.0100    0.0100    0.0100
    0.0100    0.0100    0.0100    0.0100    0.0100    0.0100    0.0100    0.0100
    0.0100    0.0100    0.0100    0.0100    0.0100    0.0100    0.0100    0.0100
    0.0100    0.0100    0.0100    0.0100    0.0100    0.0100    0.0100    0.0100
    0.0100    0.0100    0.0100    0.0100    0.0100    0.0100    0.0100    0.0100
    0.0100    0.0100    0.0100    0.0100    0.0100    0.0100    0.0100    0.0100
    0.0100    0.0100    0.0100    0.0100    0.0100    0.0100    0.0100    0.0100
    0.0100    0.0100    0.0100    0.0100    0.0100    0.0100    0.0100    0.0100
    0.0100    0.0100    0.0100    0.0100    0.0100    0.0100    0.0100    0.0100
    0.0100    0.0100    0.0100    0.0100    0.0100    0.0100    0.0100    0.0100
    0.0100    0.0100    0.0100    0.0100    0.0100    0.0100    0.0100    0.0100
    0.0100    0.0100    0.0100    0.0100    0.0100    0.0100    0.0100    0.0100
    0.0100    0.0100    0.0100    0.0100    0.0100    0.0100    0.0100    0.0100
    0.0100    0.0100    0.0100    0.0100    0.0100    0.0100    0.0100    0.0100
    0.0100    0.0100    0.0100    0.0100    0.0100    0.0100    0.0100    0.0100
    0.0100    0.0100    0.0100    0.0100    0.0100    0.0100    0.0100    0.0100
    0.0100    0.0100    0.0100    0.0100    0.0100    0.0100    0.0100    0.0100
    0.0100    0.0100    0.0100    0.0100    0.0100    0.0100    0.0100    0.0100
    0.0100    0.0100    0.0100    0.0100    0.0100    0.0100    0.0100    0.0100
    0.0100    0.0100    0.0100    0.0100    0.0100    0.0100    0.0100    0.0100
    0.0100    0.0100    0.0100    0.0100    0.0100    0.0100    0.0100    0.0100
    0.0100    0.0100    0.0100    0.0100    0.0100    0.0100    0.0100    0.0100
    0.0100    0.0100    0.0100    0.0100    0.0100    0.0100    0.0100    0.0100
    0.0100    0.0100    0.0100    0.0100    0.0100    0.0100    0.0100    0.0100
    0.0100    0.0100    0.0100    0.0100    0.0100    0.0100    0.0100    0.0100
    0.0100    0.0100    0.0100    0.0100    0.0100    0.0100    0.0100    0.0100
    0.0100    0.0100    0.0100    0.0100    0.0100    0.0100    0.0100    0.0100
    0.0100    0.0100
   </PP_RAB>
 </PP_MESH>
  <PP_LOCAL type="real"  size=" 930" columns="4">
   -2.8903821883E+01   -3.0850645506E+01   -3.2428929389E+01   -3.2818841454E+01
   -3.2495869389E+01   -3.1980402522E+01   -3.1502247368E+01   -3.1117694032E+01
   -3.0816750665E+01   -3.0574660750E+01   -3.0369149975E+01   -3.0183776558E+01
   -3.0007216355E+01   -2.9831920464E+01   -2.9653026255E+01   -2.9467606028E+01
   -2.9274157476E+01   -2.9072237529E+01   -2.8862174936E+01   -2.8644828529E+01
   -2.8421379444E+01   -2.8193156944E+01   -2.7961501168E+01   -2.7727664812E+01
   -2.7492752253E+01   -2.7257690891E+01   -2.7023227087E+01   -2.6789938262E+01
   -2.6558253391E+01   -2.6328475710E+01   -2.6100803337E+01   -2.5875345298E+01
   -2.5652131981E+01   -2.5431120138E+01   -2.5212193456E+01   -2.4995160285E+01
   -2.4779750576E+01   -2.4565614286E+01   -2.4352323531E+01   -2.4139380438E+01
   -2.3926232020E+01   -2.3712292394E+01   -2.3496971448E+01   -2.3279707783E+01
   -2.3060002748E+01   -2.2837451797E+01   -2.2611769551E+01   -2.2382805693E+01
   -2.2150550162E+01   -2.1915127670E+01   -2.1676782967E+01   -2.1435859382E+01
   -2.1192773628E+01   -2.0947989832E+01   -2.0701995271E+01   -2.0455279536E+01
   -2.0208318092E+01   -1.9961560448E+01   -1.9715422654E+01   -1.9470283481E+01
   -1.9226483500E+01   -1.8984326242E+01   -1.8744080720E+01   -1.8505984712E+01
   -1.8270248319E+01   -1.8037057504E+01   -1.7806577360E+01   -1.7578955015E+01
   -1.7354322100E+01   -1.7132796772E+01   -1.6914485330E+01   -1.6699483436E+01
   -1.6487877022E+01   -1.6279742895E+01   -1.6075149119E+01   -1.5874155200E+01
   -1.5676812120E+01   -1.5483162244E+01   -1.5293239136E+01   -1.5107067302E+01
   -1.4924661885E+01   -1.4746028305E+01   -1.4571161887E+01   -1.4400047459E+01
   -1.4232658939E+01   -1.4068958908E+01   -1.3908898183E+01   -1.3752415381E+01
   -1.3599436480E+01   -1.3449874377E+01   -1.3303628449E+01   -1.3160584419E+01
   -1.3020621066E+01   -1.2883621081E+01   -1.2749472700E+01   -1.2618069532E+01
   -1.2489310408E+01   -1.2363099227E+01   -1.2239344818E+01   -1.2117960803E+01
   -1.1998865468E+01   -1.1881981630E+01   -1.1767236508E+01   -1.1654561593E+01
   -1.1543892510E+01   -1.1435168881E+01   -1.1328334178E+01   -1.1223335564E+01
   -1.1120123735E+01   -1.1018652737E+01   -1.0918879782E+01   -1.0820765049E+01
   -1.0724271474E+01   -1.0629364520E+01   -1.0536011953E+01   -1.0444183594E+01
   -1.0353851068E+01   -1.0264987556E+01   -1.0177567533E+01   -1.0091566521E+01
   -1.0006960836E+01   -9.9237273515E+00   -9.8418432752E+00   -9.7612859230E+00
   -9.6820324773E+00   -9.6040599789E+00   -9.5273452046E+00   -9.4518644065E+00
   -9.3775932871E+00   -9.3045069411E+00   -9.2325799274E+00   -9.1617867798E+00
   -9.0921022611E+00   -9.0235010650E+00   -8.9559579404E+00   -8.8894477589E+00
   -8.8239455967E+00   -8.7594268246E+00   -8.6958671999E+00   -8.6332429555E+00
   -8.5715308666E+00   -8.5107083489E+00   -8.4507536242E+00   -8.3916457073E+00
   -8.3333644558E+00   -8.2758906025E+00   -8.2192059179E+00   -8.1632929445E+00
   -8.1081353508E+00   -8.0537182046E+00   -8.0000266134E+00   -7.9470461447E+00
   -7.8947627694E+00   -7.8431628213E+00   -7.7922329890E+00   -7.7419603046E+00
   -7.6923321323E+00   -7.6433361581E+00   -7.5949603796E+00   -7.5471930962E+00
   -7.5000228996E+00   -7.4534386651E+00   -7.4074295423E+00   -7.3619849470E+00
   -7.3170945532E+00   -7.2727482851E+00   -7.2289363096E+00   -7.1856490290E+00
   -7.1428770741E+00   -7.1006112976E+00   -7.0588427671E+00   -7.0175627592E+00
   -6.9767627535E+00   -6.9364344263E+00   -6.8965696454E+00   -6.8571604645E+00
   -6.8181991177E+00   -6.7796780146E+00   -6.7415897356E+00   -6.7039270266E+00
   -6.6666827948E+00   -6.6298501041E+00   -6.5934221710E+00   -6.5573923599E+00
   -6.5217541799E+00   -6.4865012802E+00   -6.4516274464E+00   -6.4171265973E+00
   -6.3829927810E+00   -6.3492201715E+00   -6.3158030656E+00   -6.2827358794E+00
   -6.2500131452E+00   -6.2176295090E+00   -6.1855797269E+00   -6.1538586626E+00
   -6.1224612847E+00   -6.0913826639E+00   -6.0606179705E+00   -6.0301624719E+00
   -6.0000115301E+00   -5.9701605995E+00   -5.9406052244E+00   -5.9113410369E+00
   -5.8823637549E+00   -5.8536691796E+00   -5.8252531940E+00   -5.7971117605E+00
   -5.7692409191E+00   -5.7416367858E+00   -5.7142955503E+00   -5.6872134748E+00
   -5.6603868919E+00   -5.6338122030E+00   -5.6074858769E+00   -5.5814044480E+00
   -5.5555645151E+00   -5.5299627393E+00   -5.5045958433E+00   -5.4794606095E+00
   -5.4545538789E+00   -5.4298725495E+00   -5.4054135755E+00   -5.3811739654E+00
   -5.3571507814E+00   -5.3333411378E+00   -5.3097421998E+00   -5.2863511829E+00
   -5.2631653512E+00   -5.2401820167E+00   -5.2173985382E+00   -5.1948123200E+00
   -5.1724208114E+00   -5.1502215054E+00   -5.1282119379E+00   -5.1063896865E+00
   -5.0847523703E+00   -5.0632976483E+00   -5.0420232187E+00   -5.0209268186E+00
   -5.0000062225E+00   -4.9792592421E+00   -4.9586837250E+00   -4.9382775545E+00
   -4.9180386483E+00   -4.8979649584E+00   -4.8780544699E+00   -4.8583052007E+00
   -4.8387152004E+00   -4.8192825501E+00   -4.8000053618E+00   -4.7808817772E+00
   -4.7619099677E+00   -4.7430881337E+00   -4.7244145037E+00   -4.7058873342E+00
   -4.6875049091E+00   -4.6692655381E+00   -4.6511675573E+00   -4.6332093316E+00
   -4.6153892480E+00   -4.5977057149E+00   -4.5801571708E+00   -4.5627420776E+00
   -4.5454589174E+00   -4.5283061966E+00   -4.5112824443E+00   -4.4943862114E+00
   -4.4776160704E+00   -4.4609706150E+00   -4.4444484599E+00   -4.4280482401E+00
   -4.4117686108E+00   -4.3956082467E+00   -4.3795658421E+00   -4.3636401101E+00
   -4.3478297826E+00   -4.3321336096E+00   -4.3165503593E+00   -4.3010788174E+00
   -4.2857177872E+00   -4.2704660887E+00   -4.2553225588E+00   -4.2402860509E+00
   -4.2253554344E+00   -4.2105295948E+00   -4.1958074329E+00   -4.1811878650E+00
   -4.1666698224E+00   -4.1522522512E+00   -4.1379341121E+00   -4.1237143800E+00
   -4.1095920438E+00   -4.0955661064E+00   -4.0816355840E+00   -4.0677995063E+00
   -4.0540569161E+00   -4.0404068691E+00   -4.0268484337E+00   -4.0133806906E+00
   -4.0000027330E+00   -3.9867136659E+00   -3.9735126064E+00   -3.9603986830E+00
   -3.9473710359E+00   -3.9344288165E+00   -3.9215711872E+00   -3.9087973214E+00
   -3.8961064032E+00   -3.8834976273E+00   -3.8709701988E+00   -3.8585233329E+00
   -3.8461562551E+00   -3.8338682005E+00   -3.8216584143E+00   -3.8095261508E+00
   -3.7974706743E+00   -3.7854912579E+00   -3.7735871841E+00   -3.7617577444E+00
   -3.7500022391E+00   -3.7383199772E+00   -3.7267102763E+00   -3.7151724624E+00
   -3.7037058699E+00   -3.6923098414E+00   -3.6809837276E+00   -3.6697268869E+00
   -3.6585386859E+00   -3.6474184985E+00   -3.6363657066E+00   -3.6253796992E+00
   -3.6144598728E+00   -3.6036056313E+00   -3.5928163856E+00   -3.5820915535E+00
   -3.5714305600E+00   -3.5608328368E+00   -3.5502978222E+00   -3.5398249614E+00
   -3.5294137059E+00   -3.5190635138E+00   -3.5087738493E+00   -3.4985441832E+00
   -3.4883739920E+00   -3.4782627587E+00   -3.4682099721E+00   -3.4582151269E+00
   -3.4482777234E+00   -3.4383972681E+00   -3.4285732727E+00   -3.4188052547E+00
   -3.4090927370E+00   -3.3994352479E+00   -3.3898323211E+00   -3.3802834954E+00
   -3.3707883150E+00   -3.3613463291E+00   -3.3519570919E+00   -3.3426201625E+00
   -3.3333351051E+00   -3.3241014887E+00   -3.3149188868E+00   -3.3057868779E+00
   -3.2967050451E+00   -3.2876729758E+00   -3.2786902622E+00   -3.2697565009E+00
   -3.2608712928E+00   -3.2520342430E+00   -3.2432449612E+00   -3.2345030611E+00
   -3.2258081606E+00   -3.2171598816E+00   -3.2085578502E+00   -3.2000016964E+00
   -3.1914910541E+00   -3.1830255613E+00   -3.1746048594E+00   -3.1662285941E+00
   -3.1578964144E+00   -3.1496079733E+00   -3.1413629272E+00   -3.1331609363E+00
   -3.1250016641E+00   -3.1168847779E+00   -3.1088099481E+00   -3.1007768487E+00
   -3.0927851571E+00   -3.0848345539E+00   -3.0769247231E+00   -3.0690553519E+00
   -3.0612261305E+00   -3.0534367525E+00   -3.0456869146E+00   -3.0379763164E+00
   -3.0303046606E+00   -3.0226716530E+00   -3.0150770022E+00   -3.0075204199E+00
   -3.0000016205E+00   -2.9925203213E+00   -2.9850762426E+00   -2.9776691072E+00
   -2.9702986408E+00   -2.9629645718E+00   -2.9556666312E+00   -2.9484045528E+00
   -2.9411780727E+00   -2.9339869300E+00   -2.9268308660E+00   -2.9197096247E+00
   -2.9126229526E+00   -2.9055705984E+00   -2.8985523136E+00   -2.8915678519E+00
   -2.8846169693E+00   -2.8776994242E+00   -2.8708149775E+00   -2.8639633920E+00
   -2.8571444332E+00   -2.8503578684E+00   -2.8436034674E+00   -2.8368810021E+00
   -2.8301902465E+00   -2.8235309768E+00   -2.8169029713E+00   -2.8103060103E+00
   -2.8037398762E+00   -2.7972043534E+00   -2.7906992283E+00   -2.7842242894E+00