<UPF version="2.0.1">
  <PP_INFO>

 This pseudopotential file has been produced using the code
 ONCVPSP  (Optimized Norm-Conservinng Vanderbilt PSeudopotential)
 fully-relativistic version 3.3.1 12/12/2017 by D. R. Hamann
 The code is available through a link at URL www.mat-simresearch.com.
 Documentation with the package provides a full discription of the
 input data below.


 While it is not required under the terms of the GNU GPL, it is
 suggested that you cite D. R. Hamann, Phys. Rev. B 88, 085117 (2013)
 in any publication using these pseudopotentials.

    <PP_INPUTFILE>
# ATOM AND REFERENCE CONFIGURATION
# atsym  z   nc   nv     iexc    psfile
  Ar 18.00    3    2       3      upf
#
#   n    l    f        energy (Ha)
    1    0    2.00
    2    0    2.00
    2    1    6.00
    3    0    2.00
    3    1    6.00
#
# PSEUDOPOTENTIAL AND OPTIMIZATION
# lmax
    2
#
#   l,   rc,     ep,   ncon, nbas, qcut
    0   1.55000  -0.89159    4    8   8.20000
    1   1.55000  -0.37948    4    8   8.20000
    2   1.55000   0.10000    4    8   8.20000
#
# LOCAL POTENTIAL
# lloc, lpopt,  rc(5),   dvloc0
    4    5   1.50000      0.00000
#
# VANDERBILT-KLEINMAN-BYLANDER PROJECTORs
# l, nproj, debl
    0    2   1.50000
    1    2   1.49780
    2    2   1.00000
#
# MODEL CORE CHARGE
# icmod, fcfact, rcfact
    3   7.00000   1.25000
#
# LOG DERIVATIVE ANALYSIS
# epsh1, epsh2, depsh
  -12.00   12.00    0.02
#
# OUTPUT GRID
# rlmax, drl
    4.00    0.01
#
# TEST CONFIGURATIONS
# ncnf
    0
# nvcnf
#   n    l    f
    </PP_INPUTFILE>
  </PP_INFO>
  <!--                               -->
  <!-- END OF HUMAN READABLE SECTION -->
  <!--                               -->
    <PP_HEADER
       generated="Generated using ONCVPSP code by D. R. Hamann"
       author="anonymous"
       date="220414"
       comment=""
       element="Ar"
       pseudo_type="NC"
       relativistic="full"
       is_ultrasoft="F"
       is_paw="F"
       is_coulomb="F"
       has_so="T"
       has_wfc="F"
       has_gipaw="F"
       core_correction="T"
       functional="PZ"
       z_valence="    8.00"
       total_psenergy="  -4.23835562643E+01"
       rho_cutoff="   9.37000000000E+00"
       l_max="2"
       l_local="-1"
       mesh_size="   938"
       number_of_wfc="3"
       number_of_proj="10"/>
 <PP_MESH>
   <PP_R type="real"  size=" 938" columns="8">
    0.0000    0.0100    0.0200    0.0300    0.0400    0.0500    0.0600    0.0700
    0.0800    0.0900    0.1000    0.1100    0.1200    0.1300    0.1400    0.1500
    0.1600    0.1700    0.1800    0.1900    0.2000    0.2100    0.2200    0.2300
    0.2400    0.2500    0.2600    0.2700    0.2800    0.2900    0.3000    0.3100
    0.3200    0.3300    0.3400    0.3500    0.3600    0.3700    0.3800    0.3900
    0.4000    0.4100    0.4200    0.4300    0.4400    0.4500    0.4600    0.4700
    0.4800    0.4900    0.5000    0.5100    0.5200    0.5300    0.5400    0.5500
    0.5600    0.5700    0.5800    0.5900    0.6000    0.6100    0.6200    0.6300
    0.6400    0.6500    0.6600    0.6700    0.6800    0.6900    0.7000    0.7100
    0.7200    0.7300    0.7400    0.7500    0.7600    0.7700    0.7800    0.7900
    0.8000    0.8100    0.8200    0.8300    0.8400    0.8500    0.8600    0.8700
    0.8800    0.8900    0.9000    0.9100    0.9200    0.9300    0.9400    0.9500
    0.9600    0.9700    0.9800    0.9900    1.0000    1.0100    1.0200    1.0300
    1.0400    1.0500    1.0600    1.0700    1.0800    1.0900    1.1000    1.1100
    1.1200    1.1300    1.1400    1.1500    1.1600    1.1700    1.1800    1.1900
    1.2000    1.2100    1.2200    1.2300    1.2400    1.2500    1.2600    1.2700
    1.2800    1.2900    1.3000    1.3100    1.3200    1.3300    1.3400    1.3500
    1.3600    1.3700    1.3800    1.3900    1.4000    1.4100    1.4200    1.4300
    1.4400    1.4500    1.4600    1.4700    1.4800    1.4900    1.5000    1.5100
    1.5200    1.5300    1.5400    1.5500    1.5600    1.5700    1.5800    1.5900
    1.6000    1.6100    1.6200    1.6300    1.6400    1.6500    1.6600    1.6700
    1.6800    1.6900    1.7000    1.7100    1.7200    1.7300    1.7400    1.7500
    1.7600    1.7700    1.7800    1.7900    1.8000    1.8100    1.8200    1.8300
    1.8400    1.8500    1.8600    1.8700    1.8800    1.8900    1.9000    1.9100
    1.9200    1.9300    1.9400    1.9500    1.9600    1.9700    1.9800    1.9900
    2.0000    2.0100    2.0200    2.0300    2.0400    2.0500    2.0600    2.0700
    2.0800    2.0900    2.1000    2.1100    2.1200    2.1300    2.1400    2.1500
    2.1600    2.1700    2.1800    2.1900    2.2000    2.2100    2.2200    2.2300
    2.2400    2.2500    2.2600    2.2700    2.2800    2.2900    2.3000    2.3100
    2.3200    2.3300    2.3400    2.3500    2.3600    2.3700    2.3800    2.3900
    2.4000    2.4100    2.4200    2.4300    2.4400    2.4500    2.4600    2.4700
    2.4800    2.4900    2.5000    2.5100    2.5200    2.5300    2.5400    2.5500
    2.5600    2.5700    2.5800    2.5900    2.6000    2.6100    2.6200    2.6300
    2.6400    2.6500    2.6600    2.6700    2.6800    2.6900    2.7000    2.7100
    2.7200    2.7300    2.7400    2.7500    2.7600    2.7700    2.7800    2.7900
    2.8000    2.8100    2.8200    2.8300    2.8400    2.8500    2.8600    2.8700
    2.8800    2.8900    2.9000    2.9100    2.9200    2.9300    2.9400    2.9500
    2.9600    2.9700    2.9800    2.9900    3.0000    3.0100    3.0200    3.0300
    3.0400    3.0500    3.0600    3.0700    3.0800    3.0900    3.1000    3.1100
    3.1200    3.1300    3.1400    3.1500    3.1600    3.1700    3.1800    3.1900
    3.2000    3.2100    3.2200    3.2300    3.2400    3.2500    3.2600    3.2700
    3.2800    3.2900    3.3000    3.3100    3.3200    3.3300    3.3400    3.3500
    3.3600    3.3700    3.3800    3.3900    3.4000    3.4100    3.4200    3.4300
    3.4400    3.4500    3.4600    3.4700    3.4800    3.4900    3.5000    3.5100
    3.5200    3.5300    3.5400    3.5500    3.5600    3.5700    3.5800    3.5900
    3.6000    3.6100    3.6200    3.6300    3.6400    3.6500    3.6600    3.6700
    3.6800    3.6900    3.7000    3.7100    3.7200    3.7300    3.7400    3.7500
    3.7600    3.7700    3.7800    3.7900    3.8000    3.8100    3.8200    3.8300
    3.8400    3.8500    3.8600    3.8700    3.8800    3.8900    3.9000    3.9100
    3.9200    3.9300    3.9400    3.9500    3.9600    3.9700    3.9800    3.9900
    4.0000    4.0100    4.0200    4.0300    4.0400    4.0500    4.0600    4.0700
    4.0800    4.0900    4.1000    4.1100    4.1200    4.1300    4.1400    4.1500
    4.1600    4.1700    4.1800    4.1900    4.2000    4.2100    4.2200    4.2300
    4.2400    4.2500    4.2600    4.2700    4.2800    4.2900    4.3000    4.3100
    4.3200    4.3300    4.3400    4.3500    4.3600    4.3700    4.3800    4.3900
    4.4000    4.4100    4.4200    4.4300    4.4400    4.4500    4.4600    4.4700
    4.4800    4.4900    4.5000    4.5100    4.5200    4.5300    4.5400    4.5500
    4.5600    4.5700    4.5800    4.5900    4.6000    4.6100    4.6200    4.6300
    4.6400    4.6500    4.6600    4.6700    4.6800    4.6900    4.7000    4.7100
    4.7200    4.7300    4.7400    4.7500    4.7600    4.7700    4.7800    4.7900
    4.8000    4.8100    4.8200    4.8300    4.8400    4.8500    4.8600    4.8700
    4.8800    4.8900    4.9000    4.9100    4.9200    4.9300    4.9400    4.9500
    4.9600    4.9700    4.9800    4.9900    5.0000    5.0100    5.0200    5.0300
    5.0400    5.0500    5.0600    5.0700    5.0800    5.0900    5.1000    5.1100
    5.1200    5.1300    5.1400    5.1500    5.1600    5.1700    5.1800    5.1900
    5.2000    5.2100    5.2200    5.2300    5.2400    5.2500    5.2600    5.2700
    5.2800    5.2900    5.3000    5.3100    5.3200    5.3300    5.3400    5.3500
    5.3600    5.3700    5.3800    5.3900    5.4000    5.4100    5.4200    5.4300
    5.4400    5.4500    5.4600    5.4700    5.4800    5.4900    5.5000    5.5100
    5.5200    5.5300    5.5400    5.5500    5.5600    5.5700    5.5800    5.5900
    5.6000    5.6100    5.6200    5.6300    5.6400    5.6500    5.6600    5.6700
    5.6800    5.6900    5.7000    5.7100    5.7200    5.7300    5.7400    5.7500
    5.7600    5.7700    5.7800    5.7900    5.8000    5.8100    5.8200    5.8300
    5.8400    5.8500    5.8600    5.8700    5.8800    5.8900    5.9000    5.9100
    5.9200    5.9300    5.9400    5.9500    5.9600    5.9700    5.9800    5.9900
    6.0000    6.0100    6.0200    6.0300    6.0400    6.0500    6.0600    6.0700
    6.0800    6.0900    6.1000    6.1100    6.1200    6.1300    6.1400    6.1500
    6.1600    6.1700    6.1800    6.1900    6.2000    6.2100    6.2200    6.2300
    6.2400    6.2500    6.2600    6.2700    6.2800    6.2900    6.3000    6.3100
    6.3200    6.3300    6.3400    6.3500    6.3600    6.3700    6.3800    6.3900
    6.4000    6.4100    6.4200    6.4300    6.4400    6.4500    6.4600    6.4700
    6.4800    6.4900    6.5000    6.5100    6.5200    6.5300    6.5400    6.5500
    6.5600    6.5700    6.5800    6.5900    6.6000    6.6100    6.6200    6.6300
    6.6400    6.6500    6.6600    6.6700    6.6800    6.6900    6.7000    6.7100
    6.7200    6.7300    6.7400    6.7500    6.7600    6.7700    6.7800    6.7900
    6.8000    6.8100    6.8200    6.8300    6.8400    6.8500    6.8600    6.8700
    6.8800    6.8900    6.9000    6.9100    6.9200    6.9300    6.9400    6.9500
    6.9600    6.9700    6.9800    6.9900    7.0000    7.0100    7.0200    7.0300
    7.0400    7.0500    7.0600    7.0700    7.0800    7.0900    7.1000    7.1100
    7.1200    7.1300    7.1400    7.1500    7.1600    7.1700    7.1800    7.1900
    7.2000    7.2100    7.2200    7.2300    7.2400    7.2500    7.2600    7.2700
    7.2800    7.2900    7.3000    7.3100    7.3200    7.3300    7.3400    7.3500
    7.3600    7.3700    7.3800    7.3900    7.4000    7.4100    7.4200    7.4300
    7.4400    7.4500    7.4600    7.4700    7.4800    7.4900    7.5000    7.5100
    7.5200    7.5300    7.5400    7.5500    7.5600    7.5700    7.5800    7.5900
    7.6000    7.6100    7.6200    7.6300    7.6400    7.6500    7.6600    7.6700
    7.6800    7.6900    7.7000    7.7100    7.7200    7.7300    7.7400    7.7500
    7.7600    7.7700    7.7800    7.7900    7.8000    7.8100    7.8200    7.8300
    7.8400    7.8500    7.8600    7.8700    7.8800    7.8900    7.9000    7.9100
    7.9200    7.9300    7.9400    7.9500    7.9600    7.9700    7.9800    7.9900
    8.0000    8.0100    8.0200    8.0300    8.0400    8.0500    8.0600    8.0700
    8.0800    8.0900    8.1000    8.1100    8.1200    8.1300    8.1400    8.1500
    8.1600    8.1700    8.1800    8.1900    8.2000    8.2100    8.2200    8.2300
    8.2400    8.2500    8.2600    8.2700    8.2800    8.2900    8.3000    8.3100
    8.3200    8.3300    8.3400    8.3500    8.3600    8.3700    8.3800    8.3900
    8.4000    8.4100    8.4200    8.4300    8.4400    8.4500    8.4600    8.4700
    8.4800    8.4900    8.5000    8.5100    8.5200    8.5300    8.5400    8.5500
    8.5600    8.5700    8.5800    8.5900    8.6000    8.6100    8.6200    8.6300
    8.6400    8.6500    8.6600    8.6700    8.6800    8.6900    8.7000    8.7100
    8.7200    8.7300    8.7400    8.7500    8.7600    8.7700    8.7800    8.7900
    8.8000    8.8100    8.8200    8.8300    8.8400    8.8500    8.8600    8.8700
    8.8800    8.8900    8.9000    8.9100    8.9200    8.9300    8.9400    8.9500
    8.9600    8.9700    8.9800    8.9900    9.0000    9.0100    9.0200    9.0300
    9.0400    9.0500    9.0600    9.0700    9.0800    9.0900    9.1000    9.1100
    9.1200    9.1300    9.1400    9.1500    9.1600    9.1700    9.1800    9.1900
    9.2000    9.2100    9.2200    9.2300    9.2400    9.2500    9.2600    9.2700
    9.2800    9.2900    9.3000    9.3100    9.3200    9.3300    9.3400    9.3500
    9.3600    9.3700
   </PP_R>
   <PP_RAB type="real"  size=" 938" columns="8">
    0.0100    0.0100    0.0100    0.0100    0.0100    0.0100    0.0100    0.0100
    0.0100    0.0100    0.0100    0.0100    0.0100    0.0100    0.0100    0.0100
    0.0100    0.0100    0.0100    0.0100    0.0100    0.0100    0.0100    0.0100
    0.0100    0.0100    0.0100    0.0100    0.0100    0.0100    0.0100    0.0100
    0.0100    0.0100    0.0100    0.0100    0.0100    0.0100    0.0100    0.0100
    0.0100    0.0100    0.0100    0.0100    0.0100    0.0100    0.0100    0.0100
    0.0100    0.0100    0.0100    0.0100    0.0100    0.0100    0.0100    0.0100
    0.0100    0.0100    0.0100    0.0100    0.0100    0.0100    0.0100    0.0100
    0.0100    0.0100    0.0100    0.0100    0.0100    0.0100    0.0100    0.0100
    0.0100    0.0100    0.0100    0.0100    0.0100    0.0100    0.0100    0.0100
    0.0100    0.0100    0.0100    0.0100    0.0100    0.0100    0.0100    0.0100
    0.0100    0.0100    0.0100    0.0100    0.0100    0.0100    0.0100    0.0100
    0.0100    0.0100    0.0100    0.0100    0.0100    0.0100    0.0100    0.0100
    0.0100    0.0100    0.0100    0.0100    0.0100    0.0100    0.0100    0.0100
    0.0100    0.0100    0.0100    0.0100    0.0100    0.0100    0.0100    0.0100
    0.0100    0.0100    0.0100    0.0100    0.0100    0.0100    0.0100    0.0100
    0.0100    0.0100    0.0100    0.0100    0.0100    0.0100    0.0100    0.0100
    0.0100    0.0100    0.0100    0.0100    0.0100    0.0100    0.0100    0.0100
    0.0100    0.0100    0.0100    0.0100    0.0100    0.0100    0.0100    0.0100
    0.0100    0.0100    0.0100    0.0100    0.0100    0.0100    0.0100    0.0100
    0.0100    0.0100    0.0100    0.0100    0.0100    0.0100    0.0100    0.0100
    0.0100    0.0100    0.0100    0.0100    0.0100    0.0100    0.0100    0.0100
    0.0100    0.0100    0.0100    0.0100    0.0100    0.0100    0.0100    0.0100
    0.0100    0.0100    0.0100    0.0100    0.0100    0.0100    0.0100    0.0100
    0.0100    0.0100    0.0100    0.0100    0.0100    0.0100    0.0100    0.0100
    0.0100    0.0100    0.0100    0.0100    0.0100    0.0100    0.0100    0.0100
    0.0100    0.0100    0.0100    0.0100    0.0100    0.0100    0.0100    0.0100
    0.0100    0.0100    0.0100    0.0100    0.0100    0.0100    0.0100    0.0100
    0.0100    0.0100    0.0100    0.0100    0.0100    0.0100    0.0100    0.0100
    0.0100    0.0100    0.0100    0.0100    0.0100    0.0100    0.0100    0.0100
    0.0100    0.0100    0.0100    0.0100    0.0100    0.0100    0.0100    0.0100
    0.0100    0.0100    0.0100    0.0100    0.0100    0.0100    0.0100    0.0100
    0.0100    0.0100    0.0100    0.0100    0.0100    0.0100    0.0100    0.0100
    0.0100    0.0100    0.0100    0.0100    0.0100    0.0100    0.0100    0.0100
    0.0100    0.0100    0.0100    0.0100    0.0100    0.0100    0.0100    0.0100
    0.0100    0.0100    0.0100    0.0100    0.0100    0.0100    0.0100    0.0100
    0.0100    0.0100    0.0100    0.0100    0.0100    0.0100    0.0100    0.0100
    0.0100    0.0100    0.0100    0.0100    0.0100    0.0100    0.0100    0.0100
    0.0100    0.0100    0.0100    0.0100    0.0100    0.0100    0.0100    0.0100
    0.0100    0.0100    0.0100    0.0100    0.0100    0.0100    0.0100    0.0100
    0.0100    0.0100    0.0100    0.0100    0.0100    0.0100    0.0100    0.0100
    0.0100    0.0100    0.0100    0.0100    0.0100    0.0100    0.0100    0.0100
    0.0100    0.0100    0.0100    0.0100    0.0100    0.0100    0.0100    0.0100
    0.0100    0.0100    0.0100    0.0100    0.0100    0.0100    0.0100    0.0100
    0.0100    0.0100    0.0100    0.0100    0.0100    0.0100    0.0100    0.0100
    0.0100    0.0100    0.0100    0.0100    0.0100    0.0100    0.0100    0.0100
    0.0100    0.0100    0.0100    0.0100    0.0100    0.0100    0.0100    0.0100
    0.0100    0.0100    0.0100    0.0100    0.0100    0.0100    0.0100    0.0100
    0.0100    0.0100    0.0100    0.0100    0.0100    0.0100    0.0100    0.0100
    0.0100    0.0100    0.0100    0.0100    0.0100    0.0100    0.0100    0.0100
    0.0100    0.0100    0.0100    0.0100    0.0100    0.0100    0.0100    0.0100
    0.0100    0.0100    0.0100    0.0100    0.0100    0.0100    0.0100    0.0100
    0.0100    0.0100    0.0100    0.0100    0.0100    0.0100    0.0100    0.0100
    0.0100    0.0100    0.0100    0.0100    0.0100    0.0100    0.0100    0.0100
    0.0100    0.0100    0.0100    0.0100    0.0100    0.0100    0.0100    0.0100
    0.0100    0.0100    0.0100    0.0100    0.0100    0.0100    0.0100    0.0100
    0.0100    0.0100    0.0100    0.0100    0.0100    0.0100    0.0100    0.0100
    0.0100    0.0100    0.0100    0.0100    0.0100    0.0100    0.0100    0.0100
    0.0100    0.0100    0.0100    0.0100    0.0100    0.0100    0.0100    0.0100
    0.0100    0.0100    0.0100    0.0100    0.0100    0.0100    0.0100    0.0100
    0.0100    0.0100    0.0100    0.0100    0.0100    0.0100    0.0100    0.0100
    0.0100    0.0100    0.0100    0.0100    0.0100    0.0100    0.0100    0.0100
    0.0100    0.0100    0.0100    0.0100    0.0100    0.0100    0.0100    0.0100
    0.0100    0.0100    0.0100    0.0100    0.0100    0.0100    0.0100    0.0100
    0.0100    0.0100    0.0100    0.0100    0.0100    0.0100    0.0100    0.0100
    0.0100    0.0100    0.0100    0.0100    0.0100    0.0100    0.0100    0.0100
    0.0100    0.0100    0.0100    0.0100    0.0100    0.0100    0.0100    0.0100
    0.0100    0.0100    0.0100    0.0100    0.0100    0.0100    0.0100    0.0100
    0.0100    0.0100    0.0100    0.0100    0.0100    0.0100    0.0100    0.0100
    0.0100    0.0100    0.0100    0.0100    0.0100    0.0100    0.0100    0.0100
    0.0100    0.0100    0.0100    0.0100    0.0100    0.0100    0.0100    0.0100
    0.0100    0.0100    0.0100    0.0100    0.0100    0.0100    0.0100    0.0100
    0.0100    0.0100    0.0100    0.0100    0.0100    0.0100    0.0100    0.0100
    0.0100    0.0100    0.0100    0.0100    0.0100    0.0100    0.0100    0.0100
    0.0100    0.0100    0.0100    0.0100    0.0100    0.0100    0.0100    0.0100
    0.0100    0.0100    0.0100    0.0100    0.0100    0.0100    0.0100    0.0100
    0.0100    0.0100    0.0100    0.0100    0.0100    0.0100    0.0100    0.0100
    0.0100    0.0100    0.0100    0.0100    0.0100    0.0100    0.0100    0.0100
    0.0100    0.0100    0.0100    0.0100    0.0100    0.0100    0.0100    0.0100
    0.0100    0.0100    0.0100    0.0100    0.0100    0.0100    0.0100    0.0100
    0.0100    0.0100    0.0100    0.0100    0.0100    0.0100    0.0100    0.0100
    0.0100    0.0100    0.0100    0.0100    0.0100    0.0100    0.0100    0.0100
    0.0100    0.0100    0.0100    0.0100    0.0100    0.0100    0.0100    0.0100
    0.0100    0.0100    0.0100    0.0100    0.0100    0.0100    0.0100    0.0100
    0.0100    0.0100    0.0100    0.0100    0.0100    0.0100    0.0100    0.0100
    0.0100    0.0100    0.0100    0.0100    0.0100    0.0100    0.0100    0.0100
    0.0100    0.0100    0.0100    0.0100    0.0100    0.0100    0.0100    0.0100
    0.0100    0.0100    0.0100    0.0100    0.0100    0.0100    0.0100    0.0100
    0.0100    0.0100    0.0100    0.0100    0.0100    0.0100    0.0100    0.0100
    0.0100    0.0100    0.0100    0.0100    0.0100    0.0100    0.0100    0.0100
    0.0100    0.0100    0.0100    0.0100    0.0100    0.0100    0.0100    0.0100
    0.0100    0.0100    0.0100    0.0100    0.0100    0.0100    0.0100    0.0100
    0.0100    0.0100    0.0100    0.0100    0.0100    0.0100    0.0100    0.0100
    0.0100    0.0100    0.0100    0.0100    0.0100    0.0100    0.0100    0.0100
    0.0100    0.0100    0.0100    0.0100    0.0100    0.0100    0.0100    0.0100
    0.0100    0.0100    0.0100    0.0100    0.0100    0.0100    0.0100    0.0100
    0.0100    0.0100    0.0100    0.0100    0.0100    0.0100    0.0100    0.0100
    0.0100    0.0100    0.0100    0.0100    0.0100    0.0100    0.0100    0.0100
    0.0100    0.0100    0.0100    0.0100    0.0100    0.0100    0.0100    0.0100
    0.0100    0.0100    0.0100    0.0100    0.0100    0.0100    0.0100    0.0100
    0.0100    0.0100    0.0100    0.0100    0.0100    0.0100    0.0100    0.0100
    0.0100    0.0100    0.0100    0.0100    0.0100    0.0100    0.0100    0.0100
    0.0100    0.0100    0.0100    0.0100    0.0100    0.0100    0.0100    0.0100
    0.0100    0.0100    0.0100    0.0100    0.0100    0.0100    0.0100    0.0100
    0.0100    0.0100    0.0100    0.0100    0.0100    0.0100    0.0100    0.0100
    0.0100    0.0100    0.0100    0.0100    0.0100    0.0100    0.0100    0.0100
    0.0100    0.0100    0.0100    0.0100    0.0100    0.0100    0.0100    0.0100
    0.0100    0.0100    0.0100    0.0100    0.0100    0.0100    0.0100    0.0100
    0.0100    0.0100    0.0100    0.0100    0.0100    0.0100    0.0100    0.0100
    0.0100    0.0100    0.0100    0.0100    0.0100    0.0100    0.0100    0.0100
    0.0100    0.0100    0.0100    0.0100    0.0100    0.0100    0.0100    0.0100
    0.0100    0.0100    0.0100    0.0100    0.0100    0.0100    0.0100    0.0100
    0.0100    0.0100    0.0100    0.0100    0.0100    0.0100    0.0100    0.0100
    0.0100    0.0100    0.0100    0.0100    0.0100    0.0100    0.0100    0.0100
    0.0100    0.0100    0.0100    0.0100    0.0100    0.0100    0.0100    0.0100
    0.0100    0.0100    0.0100    0.0100    0.0100    0.0100    0.0100    0.0100
    0.0100    0.0100    0.0100    0.0100    0.0100    0.0100    0.0100    0.0100
    0.0100    0.0100
   </PP_RAB>
 </PP_MESH>
  <PP_LOCAL type="real"  size=" 938" columns="4">
   -2.1431762934E+01   -2.1431192367E+01   -2.1429480534E+01   -2.1426627053E+01
   -2.1422631289E+01   -2.1417492349E+01   -2.1411209089E+01   -2.1403780108E+01
   -2.1395203749E+01   -2.1385478104E+01   -2.1374601006E+01   -2.1362570037E+01
   -2.1349382524E+01   -2.1335035540E+01   -2.1319525908E+01   -2.1302850199E+01
   -2.1285004732E+01   -2.1265985583E+01   -2.1245788581E+01   -2.1224409313E+01
   -2.1201843127E+01   -2.1178085141E+01   -2.1153130239E+01   -2.1126973087E+01
   -2.1099608132E+01   -2.1071029615E+01   -2.1041231576E+01   -2.1010207866E+01
   -2.0977952159E+01   -2.0944457963E+01   -2.0909718632E+01   -2.0873727385E+01
   -2.0836477322E+01   -2.0797961439E+01   -2.0758172653E+01   -2.0717103820E+01
   -2.0674747759E+01   -2.0631097280E+01   -2.0586145211E+01   -2.0539884423E+01
   -2.0492307870E+01   -2.0443408615E+01   -2.0393179872E+01   -2.0341615041E+01
   -2.0288707751E+01   -2.0234451902E+01   -2.0178841712E+01   -2.0121871764E+01
   -2.0063537058E+01   -2.0003833062E+01   -1.9942755768E+01   -1.9880301752E+01
   -1.9816468230E+01   -1.9751253120E+01   -1.9684655110E+01   -1.9616673717E+01
   -1.9547309355E+01   -1.9476563404E+01   -1.9404438278E+01   -1.9330937488E+01
   -1.9256065715E+01   -1.9179828876E+01   -1.9102234185E+01   -1.9023290221E+01
   -1.8943006988E+01   -1.8861395970E+01   -1.8778470186E+01   -1.8694244240E+01
   -1.8608734362E+01   -1.8521958445E+01   -1.8433936077E+01   -1.8344688565E+01
   -1.8254238948E+01   -1.8162612005E+01   -1.8069834251E+01   -1.7975933932E+01
   -1.7880940999E+01   -1.7784887079E+01   -1.7687805440E+01   -1.7589730942E+01
   -1.7490699980E+01   -1.7390750419E+01   -1.7289921523E+01   -1.7188253874E+01
   -1.7085789288E+01   -1.6982570723E+01   -1.6878642179E+01   -1.6774048605E+01
   -1.6668835788E+01   -1.6563050252E+01   -1.6456739148E+01   -1.6349950152E+01
   -1.6242731351E+01   -1.6135131141E+01   -1.6027198125E+01   -1.5918981005E+01
   -1.5810528489E+01   -1.5701889191E+01   -1.5593111541E+01   -1.5484243698E+01
   -1.5375333463E+01   -1.5266428204E+01   -1.5157574776E+01   -1.5048819454E+01
   -1.4940207866E+01   -1.4831784928E+01   -1.4723594791E+01   -1.4615680784E+01
   -1.4508085365E+01   -1.4400850076E+01   -1.4294015499E+01   -1.4187621217E+01
   -1.4081705775E+01   -1.3976306651E+01   -1.3871460224E+01   -1.3767201741E+01
   -1.3663565296E+01   -1.3560583802E+01   -1.3458288968E+01   -1.3356711280E+01
   -1.3255879979E+01   -1.3155823046E+01   -1.3056567177E+01   -1.2958137776E+01
   -1.2860558929E+01   -1.2763853399E+01   -1.2668042602E+01   -1.2573146602E+01
   -1.2479184088E+01   -1.2386172367E+01   -1.2294127351E+01   -1.2203063623E+01
   -1.2112994154E+01   -1.2023928758E+01   -1.1935883757E+01   -1.1848868409E+01
   -1.1762847314E+01   -1.1677830747E+01   -1.1593880201E+01   -1.1510992507E+01
   -1.1429145021E+01   -1.1348342134E+01   -1.1268584596E+01   -1.1189867768E+01
   -1.1112186621E+01   -1.1035534551E+01   -1.0959903290E+01   -1.0885282929E+01
   -1.0811661889E+01   -1.0739026952E+01   -1.0667363208E+01   -1.0596653797E+01
   -1.0526880627E+01   -1.0458025062E+01   -1.0390068636E+01   -1.0322993618E+01
   -1.0256782747E+01   -1.0191419201E+01   -1.0126886628E+01   -1.0063169108E+01
   -1.0000251113E+01   -9.9381174959E+00   -9.8767534823E+00   -9.8161446607E+00
   -9.7562769847E+00   -9.6971367591E+00   -9.6387106251E+00   -9.5809855544E+00
   -9.5239488413E+00   -9.4675880934E+00   -9.4118912227E+00   -9.3568464371E+00
   -9.3024422324E+00   -9.2486673837E+00   -9.1955109371E+00   -9.1429622025E+00
   -9.0910107448E+00   -9.0396463768E+00   -8.9888591515E+00   -8.9386393550E+00
   -8.8889774987E+00   -8.8398643131E+00   -8.7912907403E+00   -8.7432479279E+00
   -8.6957272224E+00   -8.6487201628E+00   -8.6022184750E+00   -8.5562140657E+00
   -8.5106990169E+00   -8.4656655805E+00   -8.4211061733E+00   -8.3770133717E+00
   -8.3333799072E+00   -8.2901986620E+00   -8.2474626640E+00   -8.2051650833E+00
   -8.1632992280E+00   -8.1218585401E+00   -8.0808365924E+00   -8.0402270844E+00
   -8.0000238395E+00   -7.9602208017E+00   -7.9208120324E+00   -7.8817917077E+00
   -7.8431541156E+00   -7.8048936534E+00   -7.7670048249E+00   -7.7294822384E+00
   -7.6923206041E+00   -7.6555147318E+00   -7.6190595290E+00   -7.5829499983E+00
   -7.5471812362E+00   -7.5117484301E+00   -7.4766468574E+00   -7.4418718827E+00
   -7.4074189566E+00   -7.3732836140E+00   -7.3394614716E+00   -7.3059482271E+00
   -7.2727396569E+00   -7.2398316145E+00   -7.2072200294E+00   -7.1749009046E+00
   -7.1428703161E+00   -7.1111244102E+00   -7.0796594029E+00   -7.0484715778E+00
   -7.0175572849E+00   -6.9869129392E+00   -6.9565350187E+00   -6.9264200638E+00
   -6.8965646751E+00   -6.8669655126E+00   -6.8376192941E+00   -6.8085227940E+00
   -6.7796728417E+00   -6.7510663208E+00   -6.7227001675E+00   -6.6945713696E+00
   -6.6666769651E+00   -6.6390140413E+00   -6.6115797337E+00   -6.5843712247E+00
   -6.5573857427E+00   -6.5306205611E+00   -6.5040729973E+00   -6.4777404116E+00
   -6.4516202067E+00   -6.4257098265E+00   -6.4000067550E+00   -6.3745085163E+00
   -6.3492126728E+00   -6.3241168253E+00   -6.2992186117E+00   -6.2745157064E+00
   -6.2500058201E+00   -6.2256866981E+00   -6.2015561209E+00   -6.1776119025E+00
   -6.1538518906E+00   -6.1302739652E+00   -6.1068760390E+00   -6.0836560560E+00
   -6.0606119913E+00   -6.0377418506E+00   -6.0150436696E+00   -5.9925155135E+00
   -5.9701554764E+00   -5.9479616809E+00   -5.9259322777E+00   -5.9040654450E+00
   -5.8823593877E+00   -5.8608123379E+00   -5.8394225534E+00   -5.8181883181E+00
   -5.7971079393E+00   -5.7761797499E+00   -5.7554021064E+00   -5.7347733931E+00
   -5.7142920182E+00   -5.6939564134E+00   -5.6737650312E+00   -5.6537163438E+00
   -5.6338088452E+00   -5.6140410494E+00   -5.5944114912E+00   -5.5749187256E+00
   -5.5555613270E+00   -5.5363378902E+00   -5.5172470294E+00   -5.4982873779E+00
   -5.4794575878E+00   -5.4607563293E+00   -5.4421822909E+00   -5.4237341788E+00
   -5.4054107167E+00   -5.3872106455E+00   -5.3691327230E+00   -5.3511757236E+00
   -5.3333384381E+00   -5.3156196733E+00   -5.2980182518E+00   -5.2805330118E+00
   -5.2631628068E+00   -5.2459065052E+00   -5.2287629904E+00   -5.2117311602E+00
   -5.1948099267E+00   -5.1779982162E+00   -5.1612949687E+00   -5.1446991381E+00
   -5.1282096914E+00   -5.1118256089E+00   -5.0955458841E+00   -5.0793695229E+00
   -5.0632955442E+00   -5.0473229789E+00   -5.0314508704E+00   -5.0156782739E+00
   -5.0000042564E+00   -4.9844278967E+00   -4.9689482849E+00   -4.9535645224E+00
   -4.9382757217E+00   -4.9230810062E+00   -4.9079795102E+00   -4.8929703783E+00
   -4.8780527658E+00   -4.8632258381E+00   -4.8484887709E+00   -4.8338407497E+00
   -4.8192809698E+00   -4.8048086363E+00   -4.7904229637E+00   -4.7761231760E+00
   -4.7619085063E+00   -4.7477781969E+00   -4.7337314990E+00   -4.7197676727E+00
   -4.7058859868E+00   -4.6920857186E+00   -4.6783661539E+00   -4.6647265869E+00
   -4.6511663199E+00   -4.6376846634E+00   -4.6242809357E+00   -4.6109544631E+00
   -4.5977045796E+00   -4.5845306269E+00   -4.5714319540E+00   -4.5584079177E+00
   -4.5454578817E+00   -4.5325812172E+00   -4.5197773024E+00   -4.5070455224E+00
   -4.4943852695E+00   -4.4817959425E+00   -4.4692769471E+00   -4.4568276956E+00
   -4.4444476067E+00   -4.4321361057E+00   -4.4198926242E+00   -4.4077166000E+00
   -4.3956074771E+00   -4.3835647058E+00   -4.3715877421E+00   -4.3596760481E+00
   -4.3478290916E+00   -4.3360463465E+00   -4.3243272919E+00   -4.3126714130E+00
   -4.3010782002E+00   -4.2895471495E+00   -4.2780777623E+00   -4.2666695452E+00
   -4.2553220103E+00   -4.2440346746E+00   -4.2328070603E+00   -4.2216386948E+00
   -4.2105291102E+00   -4.1994778438E+00   -4.1884844375E+00   -4.1775484381E+00
   -4.1666693971E+00   -4.1558468707E+00   -4.1450804196E+00   -4.1343696092E+00
   -4.1237140093E+00   -4.1131131940E+00   -4.1025667419E+00   -4.0920742360E+00
   -4.0816352633E+00   -4.0712494153E+00   -4.0609162873E+00   -4.0506354791E+00
   -4.0404065942E+00   -4.0302292403E+00   -4.0201030289E+00   -4.0100275756E+00
   -4.0000024995E+00   -3.9900274240E+00   -3.9801019757E+00   -3.9702257853E+00
   -3.9603984869E+00   -3.9506197186E+00   -3.9408891215E+00   -3.9312063407E+00
   -3.9215710245E+00   -3.9119828249E+00   -3.9024413971E+00   -3.8929463995E+00
   -3.8834974943E+00   -3.8740943465E+00   -3.8647366246E+00   -3.8554240002E+00
   -3.8461561481E+00   -3.8369327462E+00   -3.8277534754E+00   -3.8186180198E+00