<UPF version="2.0.1">
  <PP_INFO>

 This pseudopotential file has been produced using the code
 ONCVPSP  (Optimized Norm-Conservinng Vanderbilt PSeudopotential)
 scalar-relativistic version 3.3.1 12/12/2017 by D. R. Hamann
 The code is available through a link at URL www.mat-simresearch.com.
 Documentation with the package provides a full discription of the
 input data below.


 While it is not required under the terms of the GNU GPL, it is
 suggested that you cite D. R. Hamann, Phys. Rev. B 88, 085117 (2013)
 in any publication using these pseudopotentials.

    <PP_INPUTFILE>
# ATOM AND REFERENCE CONFIGURATION
# atsym  z   nc   nv     iexc    psfile
  Ar 18.00    3    2       3      upf
#
#   n    l    f        energy (Ha)
    1    0    2.00
    2    0    2.00
    2    1    6.00
    3    0    2.00
    3    1    6.00
#
# PSEUDOPOTENTIAL AND OPTIMIZATION
# lmax
    2
#
#   l,   rc,      ep,       ncon, nbas, qcut
    0   1.55000  -0.89166    4    8   8.20000
    1   1.55000  -0.38170    4    8   8.20000
    2   1.55000   0.10000    4    8   8.20000
#
# LOCAL POTENTIAL
# lloc, lpopt,  rc(5),   dvloc0
    4    5   1.50000      0.00000
#
# VANDERBILT-KLEINMAN-BYLANDER PROJECTORs
# l, nproj, debl
    0    2   1.50000
    1    2   1.50000
    2    2   1.00000
#
# MODEL CORE CHARGE
# icmod, fcfact, rcfact
    3   7.00000   1.25000
#
# LOG DERIVATIVE ANALYSIS
# epsh1, epsh2, depsh
  -12.00   12.00    0.02
#
# OUTPUT GRID
# rlmax, drl
    4.00    0.01
#
# TEST CONFIGURATIONS
# ncnf
    0
# nvcnf
#   n    l    f
    </PP_INPUTFILE>
  </PP_INFO>
  <!--                               -->
  <!-- END OF HUMAN READABLE SECTION -->
  <!--                               -->
    <PP_HEADER
       generated="Generated using ONCVPSP code by D. R. Hamann"
       author="anonymous"
       date="220414"
       comment=""
       element="Ar"
       pseudo_type="NC"
       relativistic="scalar"
       is_ultrasoft="F"
       is_paw="F"
       is_coulomb="F"
       has_so="F"
       has_wfc="F"
       has_gipaw="F"
       core_correction="T"
       functional="PZ"
       z_valence="    8.00"
       total_psenergy="  -4.23869913007E+01"
       rho_cutoff="   9.25000000000E+00"
       l_max="2"
       l_local="-1"
       mesh_size="   926"
       number_of_wfc="2"
       number_of_proj="6"/>
 <PP_MESH>
   <PP_R type="real"  size=" 926" columns="8">
    0.0000    0.0100    0.0200    0.0300    0.0400    0.0500    0.0600    0.0700
    0.0800    0.0900    0.1000    0.1100    0.1200    0.1300    0.1400    0.1500
    0.1600    0.1700    0.1800    0.1900    0.2000    0.2100    0.2200    0.2300
    0.2400    0.2500    0.2600    0.2700    0.2800    0.2900    0.3000    0.3100
    0.3200    0.3300    0.3400    0.3500    0.3600    0.3700    0.3800    0.3900
    0.4000    0.4100    0.4200    0.4300    0.4400    0.4500    0.4600    0.4700
    0.4800    0.4900    0.5000    0.5100    0.5200    0.5300    0.5400    0.5500
    0.5600    0.5700    0.5800    0.5900    0.6000    0.6100    0.6200    0.6300
    0.6400    0.6500    0.6600    0.6700    0.6800    0.6900    0.7000    0.7100
    0.7200    0.7300    0.7400    0.7500    0.7600    0.7700    0.7800    0.7900
    0.8000    0.8100    0.8200    0.8300    0.8400    0.8500    0.8600    0.8700
    0.8800    0.8900    0.9000    0.9100    0.9200    0.9300    0.9400    0.9500
    0.9600    0.9700    0.9800    0.9900    1.0000    1.0100    1.0200    1.0300
    1.0400    1.0500    1.0600    1.0700    1.0800    1.0900    1.1000    1.1100
    1.1200    1.1300    1.1400    1.1500    1.1600    1.1700    1.1800    1.1900
    1.2000    1.2100    1.2200    1.2300    1.2400    1.2500    1.2600    1.2700
    1.2800    1.2900    1.3000    1.3100    1.3200    1.3300    1.3400    1.3500
    1.3600    1.3700    1.3800    1.3900    1.4000    1.4100    1.4200    1.4300
    1.4400    1.4500    1.4600    1.4700    1.4800    1.4900    1.5000    1.5100
    1.5200    1.5300    1.5400    1.5500    1.5600    1.5700    1.5800    1.5900
    1.6000    1.6100    1.6200    1.6300    1.6400    1.6500    1.6600    1.6700
    1.6800    1.6900    1.7000    1.7100    1.7200    1.7300    1.7400    1.7500
    1.7600    1.7700    1.7800    1.7900    1.8000    1.8100    1.8200    1.8300
    1.8400    1.8500    1.8600    1.8700    1.8800    1.8900    1.9000    1.9100
    1.9200    1.9300    1.9400    1.9500    1.9600    1.9700    1.9800    1.9900
    2.0000    2.0100    2.0200    2.0300    2.0400    2.0500    2.0600    2.0700
    2.0800    2.0900    2.1000    2.1100    2.1200    2.1300    2.1400    2.1500
    2.1600    2.1700    2.1800    2.1900    2.2000    2.2100    2.2200    2.2300
    2.2400    2.2500    2.2600    2.2700    2.2800    2.2900    2.3000    2.3100
    2.3200    2.3300    2.3400    2.3500    2.3600    2.3700    2.3800    2.3900
    2.4000    2.4100    2.4200    2.4300    2.4400    2.4500    2.4600    2.4700
    2.4800    2.4900    2.5000    2.5100    2.5200    2.5300    2.5400    2.5500
    2.5600    2.5700    2.5800    2.5900    2.6000    2.6100    2.6200    2.6300
    2.6400    2.6500    2.6600    2.6700    2.6800    2.6900    2.7000    2.7100
    2.7200    2.7300    2.7400    2.7500    2.7600    2.7700    2.7800    2.7900
    2.8000    2.8100    2.8200    2.8300    2.8400    2.8500    2.8600    2.8700
    2.8800    2.8900    2.9000    2.9100    2.9200    2.9300    2.9400    2.9500
    2.9600    2.9700    2.9800    2.9900    3.0000    3.0100    3.0200    3.0300
    3.0400    3.0500    3.0600    3.0700    3.0800    3.0900    3.1000    3.1100
    3.1200    3.1300    3.1400    3.1500    3.1600    3.1700    3.1800    3.1900
    3.2000    3.2100    3.2200    3.2300    3.2400    3.2500    3.2600    3.2700
    3.2800    3.2900    3.3000    3.3100    3.3200    3.3300    3.3400    3.3500
    3.3600    3.3700    3.3800    3.3900    3.4000    3.4100    3.4200    3.4300
    3.4400    3.4500    3.4600    3.4700    3.4800    3.4900    3.5000    3.5100
    3.5200    3.5300    3.5400    3.5500    3.5600    3.5700    3.5800    3.5900
    3.6000    3.6100    3.6200    3.6300    3.6400    3.6500    3.6600    3.6700
    3.6800    3.6900    3.7000    3.7100    3.7200    3.7300    3.7400    3.7500
    3.7600    3.7700    3.7800    3.7900    3.8000    3.8100    3.8200    3.8300
    3.8400    3.8500    3.8600    3.8700    3.8800    3.8900    3.9000    3.9100
    3.9200    3.9300    3.9400    3.9500    3.9600    3.9700    3.9800    3.9900
    4.0000    4.0100    4.0200    4.0300    4.0400    4.0500    4.0600    4.0700
    4.0800    4.0900    4.1000    4.1100    4.1200    4.1300    4.1400    4.1500
    4.1600    4.1700    4.1800    4.1900    4.2000    4.2100    4.2200    4.2300
    4.2400    4.2500    4.2600    4.2700    4.2800    4.2900    4.3000    4.3100
    4.3200    4.3300    4.3400    4.3500    4.3600    4.3700    4.3800    4.3900
    4.4000    4.4100    4.4200    4.4300    4.4400    4.4500    4.4600    4.4700
    4.4800    4.4900    4.5000    4.5100    4.5200    4.5300    4.5400    4.5500
    4.5600    4.5700    4.5800    4.5900    4.6000    4.6100    4.6200    4.6300
    4.6400    4.6500    4.6600    4.6700    4.6800    4.6900    4.7000    4.7100
    4.7200    4.7300    4.7400    4.7500    4.7600    4.7700    4.7800    4.7900
    4.8000    4.8100    4.8200    4.8300    4.8400    4.8500    4.8600    4.8700
    4.8800    4.8900    4.9000    4.9100    4.9200    4.9300    4.9400    4.9500
    4.9600    4.9700    4.9800    4.9900    5.0000    5.0100    5.0200    5.0300
    5.0400    5.0500    5.0600    5.0700    5.0800    5.0900    5.1000    5.1100
    5.1200    5.1300    5.1400    5.1500    5.1600    5.1700    5.1800    5.1900
    5.2000    5.2100    5.2200    5.2300    5.2400    5.2500    5.2600    5.2700
    5.2800    5.2900    5.3000    5.3100    5.3200    5.3300    5.3400    5.3500
    5.3600    5.3700    5.3800    5.3900    5.4000    5.4100    5.4200    5.4300
    5.4400    5.4500    5.4600    5.4700    5.4800    5.4900    5.5000    5.5100
    5.5200    5.5300    5.5400    5.5500    5.5600    5.5700    5.5800    5.5900
    5.6000    5.6100    5.6200    5.6300    5.6400    5.6500    5.6600    5.6700
    5.6800    5.6900    5.7000    5.7100    5.7200    5.7300    5.7400    5.7500
    5.7600    5.7700    5.7800    5.7900    5.8000    5.8100    5.8200    5.8300
    5.8400    5.8500    5.8600    5.8700    5.8800    5.8900    5.9000    5.9100
    5.9200    5.9300    5.9400    5.9500    5.9600    5.9700    5.9800    5.9900
    6.0000    6.0100    6.0200    6.0300    6.0400    6.0500    6.0600    6.0700
    6.0800    6.0900    6.1000    6.1100    6.1200    6.1300    6.1400    6.1500
    6.1600    6.1700    6.1800    6.1900    6.2000    6.2100    6.2200    6.2300
    6.2400    6.2500    6.2600    6.2700    6.2800    6.2900    6.3000    6.3100
    6.3200    6.3300    6.3400    6.3500    6.3600    6.3700    6.3800    6.3900
    6.4000    6.4100    6.4200    6.4300    6.4400    6.4500    6.4600    6.4700
    6.4800    6.4900    6.5000    6.5100    6.5200    6.5300    6.5400    6.5500
    6.5600    6.5700    6.5800    6.5900    6.6000    6.6100    6.6200    6.6300
    6.6400    6.6500    6.6600    6.6700    6.6800    6.6900    6.7000    6.7100
    6.7200    6.7300    6.7400    6.7500    6.7600    6.7700    6.7800    6.7900
    6.8000    6.8100    6.8200    6.8300    6.8400    6.8500    6.8600    6.8700
    6.8800    6.8900    6.9000    6.9100    6.9200    6.9300    6.9400    6.9500
    6.9600    6.9700    6.9800    6.9900    7.0000    7.0100    7.0200    7.0300
    7.0400    7.0500    7.0600    7.0700    7.0800    7.0900    7.1000    7.1100
    7.1200    7.1300    7.1400    7.1500    7.1600    7.1700    7.1800    7.1900
    7.2000    7.2100    7.2200    7.2300    7.2400    7.2500    7.2600    7.2700
    7.2800    7.2900    7.3000    7.3100    7.3200    7.3300    7.3400    7.3500
    7.3600    7.3700    7.3800    7.3900    7.4000    7.4100    7.4200    7.4300
    7.4400    7.4500    7.4600    7.4700    7.4800    7.4900    7.5000    7.5100
    7.5200    7.5300    7.5400    7.5500    7.5600    7.5700    7.5800    7.5900
    7.6000    7.6100    7.6200    7.6300    7.6400    7.6500    7.6600    7.6700
    7.6800    7.6900    7.7000    7.7100    7.7200    7.7300    7.7400    7.7500
    7.7600    7.7700    7.7800    7.7900    7.8000    7.8100    7.8200    7.8300
    7.8400    7.8500    7.8600    7.8700    7.8800    7.8900    7.9000    7.9100
    7.9200    7.9300    7.9400    7.9500    7.9600    7.9700    7.9800    7.9900
    8.0000    8.0100    8.0200    8.0300    8.0400    8.0500    8.0600    8.0700
    8.0800    8.0900    8.1000    8.1100    8.1200    8.1300    8.1400    8.1500
    8.1600    8.1700    8.1800    8.1900    8.2000    8.2100    8.2200    8.2300
    8.2400    8.2500    8.2600    8.2700    8.2800    8.2900    8.3000    8.3100
    8.3200    8.3300    8.3400    8.3500    8.3600    8.3700    8.3800    8.3900
    8.4000    8.4100    8.4200    8.4300    8.4400    8.4500    8.4600    8.4700
    8.4800    8.4900    8.5000    8.5100    8.5200    8.5300    8.5400    8.5500
    8.5600    8.5700    8.5800    8.5900    8.6000    8.6100    8.6200    8.6300
    8.6400    8.6500    8.6600    8.6700    8.6800    8.6900    8.7000    8.7100
    8.7200    8.7300    8.7400    8.7500    8.7600    8.7700    8.7800    8.7900
    8.8000    8.8100    8.8200    8.8300    8.8400    8.8500    8.8600    8.8700
    8.8800    8.8900    8.9000    8.9100    8.9200    8.9300    8.9400    8.9500
    8.9600    8.9700    8.9800    8.9900    9.0000    9.0100    9.0200    9.0300
    9.0400    9.0500    9.0600    9.0700    9.0800    9.0900    9.1000    9.1100
    9.1200    9.1300    9.1400    9.1500    9.1600    9.1700    9.1800    9.1900
    9.2000    9.2100    9.2200    9.2300    9.2400    9.2500
   </PP_R>
   <PP_RAB type="real"  size=" 926" columns="8">
    0.0100    0.0100    0.0100    0.0100    0.0100    0.0100    0.0100    0.0100
    0.0100    0.0100    0.0100    0.0100    0.0100    0.0100    0.0100    0.0100
    0.0100    0.0100    0.0100    0.0100    0.0100    0.0100    0.0100    0.0100
    0.0100    0.0100    0.0100    0.0100    0.0100    0.0100    0.0100    0.0100
    0.0100    0.0100    0.0100    0.0100    0.0100    0.0100    0.0100    0.0100
    0.0100    0.0100    0.0100    0.0100    0.0100    0.0100    0.0100    0.0100
    0.0100    0.0100    0.0100    0.0100    0.0100    0.0100    0.0100    0.0100
    0.0100    0.0100    0.0100    0.0100    0.0100    0.0100    0.0100    0.0100
    0.0100    0.0100    0.0100    0.0100    0.0100    0.0100    0.0100    0.0100
    0.0100    0.0100    0.0100    0.0100    0.0100    0.0100    0.0100    0.0100
    0.0100    0.0100    0.0100    0.0100    0.0100    0.0100    0.0100    0.0100
    0.0100    0.0100    0.0100    0.0100    0.0100    0.0100    0.0100    0.0100
    0.0100    0.0100    0.0100    0.0100    0.0100    0.0100    0.0100    0.0100
    0.0100    0.0100    0.0100    0.0100    0.0100    0.0100    0.0100    0.0100
    0.0100    0.0100    0.0100    0.0100    0.0100    0.0100    0.0100    0.0100
    0.0100    0.0100    0.0100    0.0100    0.0100    0.0100    0.0100    0.0100
    0.0100    0.0100    0.0100    0.0100    0.0100    0.0100    0.0100    0.0100
    0.0100    0.0100    0.0100    0.0100    0.0100    0.0100    0.0100    0.0100
    0.0100    0.0100    0.0100    0.0100    0.0100    0.0100    0.0100    0.0100
    0.0100    0.0100    0.0100    0.0100    0.0100    0.0100    0.0100    0.0100
    0.0100    0.0100    0.0100    0.0100    0.0100    0.0100    0.0100    0.0100
    0.0100    0.0100    0.0100    0.0100    0.0100    0.0100    0.0100    0.0100
    0.0100    0.0100    0.0100    0.0100    0.0100    0.0100    0.0100    0.0100
    0.0100    0.0100    0.0100    0.0100    0.0100    0.0100    0.0100    0.0100
    0.0100    0.0100    0.0100    0.0100    0.0100    0.0100    0.0100    0.0100
    0.0100    0.0100    0.0100    0.0100    0.0100    0.0100    0.0100    0.0100
    0.0100    0.0100    0.0100    0.0100    0.0100    0.0100    0.0100    0.0100
    0.0100    0.0100    0.0100    0.0100    0.0100    0.0100    0.0100    0.0100
    0.0100    0.0100    0.0100    0.0100    0.0100    0.0100    0.0100    0.0100
    0.0100    0.0100    0.0100    0.0100    0.0100    0.0100    0.0100    0.0100
    0.0100    0.0100    0.0100    0.0100    0.0100    0.0100    0.0100    0.0100
    0.0100    0.0100    0.0100    0.0100    0.0100    0.0100    0.0100    0.0100
    0.0100    0.0100    0.0100    0.0100    0.0100    0.0100    0.0100    0.0100
    0.0100    0.0100    0.0100    0.0100    0.0100    0.0100    0.0100    0.0100
    0.0100    0.0100    0.0100    0.0100    0.0100    0.0100    0.0100    0.0100
    0.0100    0.0100    0.0100    0.0100    0.0100    0.0100    0.0100    0.0100
    0.0100    0.0100    0.0100    0.0100    0.0100    0.0100    0.0100    0.0100
    0.0100    0.0100    0.0100    0.0100    0.0100    0.0100    0.0100    0.0100
    0.0100    0.0100    0.0100    0.0100    0.0100    0.0100    0.0100    0.0100
    0.0100    0.0100    0.0100    0.0100    0.0100    0.0100    0.0100    0.0100
    0.0100    0.0100    0.0100    0.0100    0.0100    0.0100    0.0100    0.0100
    0.0100    0.0100    0.0100    0.0100    0.0100    0.0100    0.0100    0.0100
    0.0100    0.0100    0.0100    0.0100    0.0100    0.0100    0.0100    0.0100
    0.0100    0.0100    0.0100    0.0100    0.0100    0.0100    0.0100    0.0100
    0.0100    0.0100    0.0100    0.0100    0.0100    0.0100    0.0100    0.0100
    0.0100    0.0100    0.0100    0.0100    0.0100    0.0100    0.0100    0.0100
    0.0100    0.0100    0.0100    0.0100    0.0100    0.0100    0.0100    0.0100
    0.0100    0.0100    0.0100    0.0100    0.0100    0.0100    0.0100    0.0100
    0.0100    0.0100    0.0100    0.0100    0.0100    0.0100    0.0100    0.0100
    0.0100    0.0100    0.0100    0.0100    0.0100    0.0100    0.0100    0.0100
    0.0100    0.0100    0.0100    0.0100    0.0100    0.0100    0.0100    0.0100
    0.0100    0.0100    0.0100    0.0100    0.0100    0.0100    0.0100    0.0100
    0.0100    0.0100    0.0100    0.0100    0.0100    0.0100    0.0100    0.0100
    0.0100    0.0100    0.0100    0.0100    0.0100    0.0100    0.0100    0.0100
    0.0100    0.0100    0.0100    0.0100    0.0100    0.0100    0.0100    0.0100
    0.0100    0.0100    0.0100    0.0100    0.0100    0.0100    0.0100    0.0100
    0.0100    0.0100    0.0100    0.0100    0.0100    0.0100    0.0100    0.0100
    0.0100    0.0100    0.0100    0.0100    0.0100    0.0100    0.0100    0.0100
    0.0100    0.0100    0.0100    0.0100    0.0100    0.0100    0.0100    0.0100
    0.0100    0.0100    0.0100    0.0100    0.0100    0.0100    0.0100    0.0100
    0.0100    0.0100    0.0100    0.0100    0.0100    0.0100    0.0100    0.0100
    0.0100    0.0100    0.0100    0.0100    0.0100    0.0100    0.0100    0.0100
    0.0100    0.0100    0.0100    0.0100    0.0100    0.0100    0.0100    0.0100
    0.0100    0.0100    0.0100    0.0100    0.0100    0.0100    0.0100    0.0100
    0.0100    0.0100    0.0100    0.0100    0.0100    0.0100    0.0100    0.0100
    0.0100    0.0100    0.0100    0.0100    0.0100    0.0100    0.0100    0.0100
    0.0100    0.0100    0.0100    0.0100    0.0100    0.0100    0.0100    0.0100
    0.0100    0.0100    0.0100    0.0100    0.0100    0.0100    0.0100    0.0100
    0.0100    0.0100    0.0100    0.0100    0.0100    0.0100    0.0100    0.0100
    0.0100    0.0100    0.0100    0.0100    0.0100    0.0100    0.0100    0.0100
    0.0100    0.0100    0.0100    0.0100    0.0100    0.0100    0.0100    0.0100
    0.0100    0.0100    0.0100    0.0100    0.0100    0.0100    0.0100    0.0100
    0.0100    0.0100    0.0100    0.0100    0.0100    0.0100    0.0100    0.0100
    0.0100    0.0100    0.0100    0.0100    0.0100    0.0100    0.0100    0.0100
    0.0100    0.0100    0.0100    0.0100    0.0100    0.0100    0.0100    0.0100
    0.0100    0.0100    0.0100    0.0100    0.0100    0.0100    0.0100    0.0100
    0.0100    0.0100    0.0100    0.0100    0.0100    0.0100    0.0100    0.0100
    0.0100    0.0100    0.0100    0.0100    0.0100    0.0100    0.0100    0.0100
    0.0100    0.0100    0.0100    0.0100    0.0100    0.0100    0.0100    0.0100
    0.0100    0.0100    0.0100    0.0100    0.0100    0.0100    0.0100    0.0100
    0.0100    0.0100    0.0100    0.0100    0.0100    0.0100    0.0100    0.0100
    0.0100    0.0100    0.0100    0.0100    0.0100    0.0100    0.0100    0.0100
    0.0100    0.0100    0.0100    0.0100    0.0100    0.0100    0.0100    0.0100
    0.0100    0.0100    0.0100    0.0100    0.0100    0.0100    0.0100    0.0100
    0.0100    0.0100    0.0100    0.0100    0.0100    0.0100    0.0100    0.0100
    0.0100    0.0100    0.0100    0.0100    0.0100    0.0100    0.0100    0.0100
    0.0100    0.0100    0.0100    0.0100    0.0100    0.0100    0.0100    0.0100
    0.0100    0.0100    0.0100    0.0100    0.0100    0.0100    0.0100    0.0100
    0.0100    0.0100    0.0100    0.0100    0.0100    0.0100    0.0100    0.0100
    0.0100    0.0100    0.0100    0.0100    0.0100    0.0100    0.0100    0.0100
    0.0100    0.0100    0.0100    0.0100    0.0100    0.0100    0.0100    0.0100
    0.0100    0.0100    0.0100    0.0100    0.0100    0.0100    0.0100    0.0100
    0.0100    0.0100    0.0100    0.0100    0.0100    0.0100    0.0100    0.0100
    0.0100    0.0100    0.0100    0.0100    0.0100    0.0100    0.0100    0.0100
    0.0100    0.0100    0.0100    0.0100    0.0100    0.0100    0.0100    0.0100
    0.0100    0.0100    0.0100    0.0100    0.0100    0.0100    0.0100    0.0100
    0.0100    0.0100    0.0100    0.0100    0.0100    0.0100    0.0100    0.0100
    0.0100    0.0100    0.0100    0.0100    0.0100    0.0100    0.0100    0.0100
    0.0100    0.0100    0.0100    0.0100    0.0100    0.0100    0.0100    0.0100
    0.0100    0.0100    0.0100    0.0100    0.0100    0.0100    0.0100    0.0100
    0.0100    0.0100    0.0100    0.0100    0.0100    0.0100    0.0100    0.0100
    0.0100    0.0100    0.0100    0.0100    0.0100    0.0100    0.0100    0.0100
    0.0100    0.0100    0.0100    0.0100    0.0100    0.0100    0.0100    0.0100
    0.0100    0.0100    0.0100    0.0100    0.0100    0.0100    0.0100    0.0100
    0.0100    0.0100    0.0100    0.0100    0.0100    0.0100    0.0100    0.0100
    0.0100    0.0100    0.0100    0.0100    0.0100    0.0100    0.0100    0.0100
    0.0100    0.0100    0.0100    0.0100    0.0100    0.0100    0.0100    0.0100
    0.0100    0.0100    0.0100    0.0100    0.0100    0.0100    0.0100    0.0100
    0.0100    0.0100    0.0100    0.0100    0.0100    0.0100    0.0100    0.0100
    0.0100    0.0100    0.0100    0.0100    0.0100    0.0100    0.0100    0.0100
    0.0100    0.0100    0.0100    0.0100    0.0100    0.0100    0.0100    0.0100
    0.0100    0.0100    0.0100    0.0100    0.0100    0.0100    0.0100    0.0100
    0.0100    0.0100    0.0100    0.0100    0.0100    0.0100    0.0100    0.0100
    0.0100    0.0100    0.0100    0.0100    0.0100    0.0100    0.0100    0.0100
    0.0100    0.0100    0.0100    0.0100    0.0100    0.0100    0.0100    0.0100
    0.0100    0.0100    0.0100    0.0100    0.0100    0.0100
   </PP_RAB>
 </PP_MESH>
  <PP_LOCAL type="real"  size=" 926" columns="4">
   -2.1432612667E+01   -2.1432042054E+01   -2.1430330083E+01   -2.1427476371E+01
   -2.1423480283E+01   -2.1418340927E+01   -2.1412057156E+01   -2.1404627568E+01
   -2.1396050506E+01   -2.1386324060E+01   -2.1375446063E+01   -2.1363414095E+01
   -2.1350225480E+01   -2.1335877291E+01   -2.1320366347E+01   -2.1303689218E+01
   -2.1285842222E+01   -2.1266821431E+01   -2.1246622671E+01   -2.1225241528E+01
   -2.1202673348E+01   -2.1178913244E+01   -2.1153956100E+01   -2.1127796577E+01
   -2.1100429120E+01   -2.1071847968E+01   -2.1042047157E+01   -2.1011020536E+01
   -2.0978761775E+01   -2.0945264380E+01   -2.0910521703E+01   -2.0874526961E+01
   -2.0837273249E+01   -2.0798753563E+01   -2.0758960815E+01   -2.0717887861E+01
   -2.0675527518E+01   -2.0631872595E+01   -2.0586915915E+01   -2.0540650351E+01
   -2.0493068855E+01   -2.0444164489E+01   -2.0393930466E+01   -2.0342360188E+01
   -2.0289447281E+01   -2.0235185648E+01   -2.0179569508E+01   -2.0122593444E+01
   -2.0064252457E+01   -2.0004542020E+01   -1.9943458126E+01   -1.9880997354E+01
   -1.9817156923E+01   -1.9751934758E+01   -1.9685329549E+01   -1.9617340818E+01
   -1.9547968986E+01   -1.9477215438E+01   -1.9405082594E+01   -1.9331573974E+01
   -1.9256694265E+01   -1.9180449392E+01   -1.9102846577E+01   -1.9023894408E+01
   -1.8943602898E+01   -1.8861983540E+01   -1.8779049362E+01   -1.8694814978E+01
   -1.8609296627E+01   -1.8522512212E+01   -1.8434481331E+01   -1.8345225301E+01
   -1.8254767170E+01   -1.8163131726E+01   -1.8070345494E+01   -1.7976436728E+01
   -1.7881435387E+01   -1.7785373107E+01   -1.7688283165E+01   -1.7590200425E+01
   -1.7491161291E+01   -1.7391203633E+01   -1.7290366720E+01   -1.7188691140E+01
   -1.7086218714E+01   -1.6982992402E+01   -1.6879056209E+01   -1.6774455086E+01
   -1.6669234821E+01   -1.6563441941E+01   -1.6457123599E+01   -1.6350327470E+01
   -1.6243101643E+01   -1.6135494513E+01   -1.6027554682E+01   -1.5919330854E+01
   -1.5810871733E+01   -1.5702225933E+01   -1.5593441884E+01   -1.5484567742E+01
   -1.5375651309E+01   -1.5266739948E+01   -1.5157880515E+01   -1.5049119283E+01
   -1.4940501877E+01   -1.4832073212E+01   -1.4723877438E+01   -1.4615957883E+01
   -1.4508357003E+01   -1.4401116338E+01   -1.4294276470E+01   -1.4187876978E+01
   -1.4081956409E+01   -1.3976552239E+01   -1.3871700846E+01   -1.3767437477E+01
   -1.3663796223E+01   -1.3560809997E+01   -1.3458510509E+01   -1.3356928244E+01
   -1.3256092443E+01   -1.3156031084E+01   -1.3056770865E+01   -1.2958337188E+01
   -1.2860754142E+01   -1.2764044485E+01   -1.2668229637E+01   -1.2573329659E+01
   -1.2479363241E+01   -1.2386347690E+01   -1.2294298917E+01   -1.2203231504E+01
   -1.2113158424E+01   -1.2024089490E+01   -1.1936041021E+01   -1.1849022273E+01
   -1.1762997875E+01   -1.1677978096E+01   -1.1594024374E+01   -1.1511133552E+01
   -1.1429283016E+01   -1.1348477150E+01   -1.1268716698E+01   -1.1189997024E+01
   -1.1112313097E+01   -1.1035658312E+01   -1.0960024399E+01   -1.0885401450E+01
   -1.0811777884E+01   -1.0739140481E+01   -1.0667474330E+01   -1.0596762571E+01
   -1.0526987107E+01   -1.0458129304E+01   -1.0390170694E+01   -1.0323093544E+01
   -1.0256880591E+01   -1.0191515012E+01   -1.0126980455E+01   -1.0063260998E+01
   -1.0000341111E+01   -9.9382056481E+00   -9.8768398320E+00   -9.8162292506E+00
   -9.7563598566E+00   -9.6972179536E+00   -9.6387901819E+00   -9.5810635121E+00
   -9.5240252379E+00   -9.4676629656E+00   -9.4119646065E+00   -9.3569183675E+00
   -9.3025127436E+00   -9.2487365090E+00   -9.1955787091E+00   -9.1430286527E+00
   -9.0910759042E+00   -9.0397102755E+00   -8.9889218190E+00   -8.9387008198E+00
   -8.8890377888E+00   -8.8399234556E+00   -8.7913487618E+00   -8.7433048543E+00
   -8.6957830788E+00   -8.6487749739E+00   -8.6022722648E+00   -8.5562668575E+00
   -8.5107508335E+00   -8.4657164441E+00   -8.4211561055E+00   -8.3770623937E+00
   -8.3334280396E+00   -8.2902459248E+00   -8.2475090768E+00   -8.2052106652E+00
   -8.1633439976E+00   -8.1219025156E+00   -8.0808797914E+00   -8.0402695242E+00
   -8.0000655369E+00   -7.9602617731E+00   -7.9208522939E+00   -7.8818312749E+00
   -7.8431930037E+00   -7.8049318772E+00   -7.7670423990E+00   -7.7295191769E+00
   -7.6923569208E+00   -7.6555504402E+00   -7.6190946421E+00   -7.5829845291E+00
   -7.5472151970E+00   -7.5117818333E+00   -7.4766797147E+00   -7.4419042058E+00
   -7.4074507569E+00   -7.3733149025E+00   -7.3394922591E+00   -7.3059785241E+00
   -7.2727694737E+00   -7.2398609611E+00   -7.2072489156E+00   -7.1749293401E+00
   -7.1428983100E+00   -7.1111519718E+00   -7.0796865409E+00   -7.0484983011E+00
   -7.0175836019E+00   -6.9869388581E+00   -6.9565605476E+00   -6.9264452106E+00
   -6.8965894475E+00   -6.8669899181E+00   -6.8376433401E+00   -6.8085464876E+00
   -6.7796961899E+00   -6.7510893305E+00   -6.7227228454E+00   -6.6945937221E+00
   -6.6666989987E+00   -6.6390357622E+00   -6.6116011480E+00   -6.5843923383E+00
   -6.5574065614E+00   -6.5306410906E+00   -6.5040932431E+00   -6.4777603792E+00
   -6.4516399014E+00   -6.4257292533E+00   -6.4000259192E+00   -6.3745274227E+00
   -6.3492313263E+00   -6.3241352305E+00   -6.2992367733E+00   -6.2745336290E+00
   -6.2500235080E+00   -6.2257041557E+00   -6.2015733523E+00   -6.1776289120E+00
   -6.1538686820E+00   -6.1302905427E+00   -6.1068924063E+00   -6.0836722169E+00
   -6.0606279495E+00   -6.0377576097E+00   -6.0150592331E+00   -5.9925308849E+00
   -5.9701706590E+00   -5.9479766781E+00   -5.9259470927E+00   -5.9040800809E+00
   -5.8823738477E+00   -5.8608266250E+00   -5.8394366705E+00   -5.8182022682E+00
   -5.7971217252E+00   -5.7761933743E+00   -5.7554155720E+00   -5.7347867027E+00
   -5.7143051744E+00   -5.6939694186E+00   -5.6737778879E+00   -5.6537290546E+00
   -5.6338214124E+00   -5.6140534753E+00   -5.5944237782E+00   -5.5749308759E+00
   -5.5555733428E+00   -5.5363497737E+00   -5.5172587826E+00   -5.4982990030E+00
   -5.4794690867E+00   -5.4607677041E+00   -5.4421935435E+00   -5.4237453111E+00
   -5.4054217306E+00   -5.3872215428E+00   -5.3691435054E+00   -5.3511863930E+00
   -5.3333489961E+00   -5.3156301217E+00   -5.2980285922E+00   -5.2805432458E+00
   -5.2631729360E+00   -5.2459165312E+00   -5.2287729147E+00   -5.2117409843E+00
   -5.1948196520E+00   -5.1780078442E+00   -5.1613045009E+00   -5.1447085758E+00
   -5.1282190359E+00   -5.1118348617E+00   -5.0955550464E+00   -5.0793785960E+00
   -5.0633045293E+00   -5.0473318774E+00   -5.0314596833E+00   -5.0156870025E+00
   -5.0000129019E+00   -4.9844364601E+00   -4.9689567675E+00   -4.9535729252E+00
   -4.9382840458E+00   -4.9230892527E+00   -4.9079876800E+00   -4.8929784725E+00
   -4.8780607855E+00   -4.8632337842E+00   -4.8484966444E+00   -4.8338485515E+00
   -4.8192887009E+00   -4.8048162976E+00   -4.7904305561E+00   -4.7761307004E+00
   -4.7619159635E+00   -4.7477855878E+00   -4.7337388245E+00   -4.7197749336E+00
   -4.7058931838E+00   -4.6920928526E+00   -4.6783732257E+00   -4.6647335972E+00
   -4.6511732695E+00   -4.6376915530E+00   -4.6242877661E+00   -4.6109612350E+00
   -4.5977112937E+00   -4.5845372838E+00   -4.5714385545E+00   -4.5584144624E+00
   -4.5454643713E+00   -4.5325876523E+00   -4.5197836837E+00   -4.5070518506E+00
   -4.4943915451E+00   -4.4818021661E+00   -4.4692831194E+00   -4.4568338170E+00
   -4.4444536779E+00   -4.4321421273E+00   -4.4198985967E+00   -4.4077225240E+00
   -4.3956133532E+00   -4.3835705344E+00   -4.3715935238E+00   -4.3596817833E+00
   -4.3478347810E+00   -4.3360519904E+00   -4.3243328910E+00   -4.3126769677E+00
   -4.3010837109E+00   -4.2895526168E+00   -4.2780831865E+00   -4.2666749270E+00
   -4.2553273499E+00   -4.2440399726E+00   -4.2328123171E+00   -4.2216439108E+00
   -4.2105342859E+00   -4.1994829795E+00   -4.1884895336E+00   -4.1775534951E+00
   -4.1666744154E+00   -4.1558518507E+00   -4.1450853617E+00   -4.1343745137E+00
   -4.1237188766E+00   -4.1131180245E+00   -4.1025715360E+00   -4.0920789940E+00
   -4.0816399856E+00   -4.0712541021E+00   -4.0609209392E+00   -4.0506400963E+00
   -4.0404111770E+00   -4.0302337891E+00   -4.0201075440E+00   -4.0100320573E+00
   -4.0000069482E+00   -3.9900318399E+00   -3.9801063592E+00   -3.9702301367E+00
   -3.9604028066E+00   -3.9506240067E+00   -3.9408933784E+00   -3.9312105666E+00
   -3.9215752198E+00   -3.9119869899E+00   -3.9024455319E+00   -3.8929505046E+00
   -3.8835015698E+00   -3.8740983927E+00   -3.8647406418E+00   -3.8554279887E+00
   -3.8461601081E+00   -3.8369366779E+00   -3.8277573792E+00   -3.8186218958E+00
   -3.8095299149E+00   -3.8004811265E+00   -3.7914752235E+00   -3.7825119017E+00
   -3.7735908599E+00   -3.7647117997E+00   -3.7558744252E+00   -3.7470784438E+00
   -3.7383235653E+00   -3.7296095021E+00   -3.7209359696E+00   -3.7123026857E+00