<UPF version="2.0.1">
  <PP_INFO>

 This pseudopotential file has been produced using the code
 ONCVPSP  (Optimized Norm-Conservinng Vanderbilt PSeudopotential)
 fully-relativistic version 4.0.1 06/04/2019 by D. R. Hamann
 The code is available through a link at URL www.mat-simresearch.com.
 Documentation with the package provides a full discription of the
 input data below.


 While it is not required under the terms of the GNU GPL, it is
 suggested that you cite D. R. Hamann, Phys. Rev. B 88, 085117 (2013)
 in any publication using these pseudopotentials.

    <PP_INPUTFILE>
# ATOM AND REFERENCE CONFIGURATION
# atsym  z   nc   nv     iexc    psfile
  F  9.00    1    2       3      upf
#
#   n    l    f        energy (Ha)
    1    0    2.00
    2    0    2.00
    2    1    5.00
#
# PSEUDOPOTENTIAL AND OPTIMIZATION
# lmax
    1
#
#   l,   rc,     ep,   ncon, nbas, qcut
    0   1.56741   0.00000    5    8   8.73495
    1   1.64712   0.00000    5    8   8.69707
#
# LOCAL POTENTIAL
# lloc, lpopt,  rc(5),   dvloc0
    4    5   0.96222      0.00000
#
# VANDERBILT-KLEINMAN-BYLANDER PROJECTORs
# l, nproj, debl
    0    2   1.51125
    1    2   1.53167
#
# MODEL CORE CHARGE
# icmod, fcfact, rcfact
    0   0.00000   0.00000
#
# LOG DERIVATIVE ANALYSIS
# epsh1, epsh2, depsh
   -5.00    3.00    0.02
#
# OUTPUT GRID
# rlmax, drl
    6.00    0.01
#
# TEST CONFIGURATIONS
# ncnf
    0
# nvcnf
#   n    l    f
    </PP_INPUTFILE>
  </PP_INFO>
  <!--                               -->
  <!-- END OF HUMAN READABLE SECTION -->
  <!--                               -->
    <PP_HEADER
       generated="Generated using ONCVPSP code by D. R. Hamann"
       author="anonymous"
       date="220414"
       comment=""
       element="F "
       pseudo_type="NC"
       relativistic="full"
       is_ultrasoft="F"
       is_paw="F"
       is_coulomb="F"
       has_so="T"
       has_wfc="F"
       has_gipaw="F"
       core_correction="F"
       functional="PZ"
       z_valence="    7.00"
       total_psenergy="  -4.73519084497E+01"
       rho_cutoff="   8.27000000000E+00"
       l_max="1"
       l_local="-1"
       mesh_size="   828"
       number_of_wfc="3"
       number_of_proj="6"/>
 <PP_MESH>
   <PP_R type="real"  size=" 828" columns="8">
    0.0000    0.0100    0.0200    0.0300    0.0400    0.0500    0.0600    0.0700
    0.0800    0.0900    0.1000    0.1100    0.1200    0.1300    0.1400    0.1500
    0.1600    0.1700    0.1800    0.1900    0.2000    0.2100    0.2200    0.2300
    0.2400    0.2500    0.2600    0.2700    0.2800    0.2900    0.3000    0.3100
    0.3200    0.3300    0.3400    0.3500    0.3600    0.3700    0.3800    0.3900
    0.4000    0.4100    0.4200    0.4300    0.4400    0.4500    0.4600    0.4700
    0.4800    0.4900    0.5000    0.5100    0.5200    0.5300    0.5400    0.5500
    0.5600    0.5700    0.5800    0.5900    0.6000    0.6100    0.6200    0.6300
    0.6400    0.6500    0.6600    0.6700    0.6800    0.6900    0.7000    0.7100
    0.7200    0.7300    0.7400    0.7500    0.7600    0.7700    0.7800    0.7900
    0.8000    0.8100    0.8200    0.8300    0.8400    0.8500    0.8600    0.8700
    0.8800    0.8900    0.9000    0.9100    0.9200    0.9300    0.9400    0.9500
    0.9600    0.9700    0.9800    0.9900    1.0000    1.0100    1.0200    1.0300
    1.0400    1.0500    1.0600    1.0700    1.0800    1.0900    1.1000    1.1100
    1.1200    1.1300    1.1400    1.1500    1.1600    1.1700    1.1800    1.1900
    1.2000    1.2100    1.2200    1.2300    1.2400    1.2500    1.2600    1.2700
    1.2800    1.2900    1.3000    1.3100    1.3200    1.3300    1.3400    1.3500
    1.3600    1.3700    1.3800    1.3900    1.4000    1.4100    1.4200    1.4300
    1.4400    1.4500    1.4600    1.4700    1.4800    1.4900    1.5000    1.5100
    1.5200    1.5300    1.5400    1.5500    1.5600    1.5700    1.5800    1.5900
    1.6000    1.6100    1.6200    1.6300    1.6400    1.6500    1.6600    1.6700
    1.6800    1.6900    1.7000    1.7100    1.7200    1.7300    1.7400    1.7500
    1.7600    1.7700    1.7800    1.7900    1.8000    1.8100    1.8200    1.8300
    1.8400    1.8500    1.8600    1.8700    1.8800    1.8900    1.9000    1.9100
    1.9200    1.9300    1.9400    1.9500    1.9600    1.9700    1.9800    1.9900
    2.0000    2.0100    2.0200    2.0300    2.0400    2.0500    2.0600    2.0700
    2.0800    2.0900    2.1000    2.1100    2.1200    2.1300    2.1400    2.1500
    2.1600    2.1700    2.1800    2.1900    2.2000    2.2100    2.2200    2.2300
    2.2400    2.2500    2.2600    2.2700    2.2800    2.2900    2.3000    2.3100
    2.3200    2.3300    2.3400    2.3500    2.3600    2.3700    2.3800    2.3900
    2.4000    2.4100    2.4200    2.4300    2.4400    2.4500    2.4600    2.4700
    2.4800    2.4900    2.5000    2.5100    2.5200    2.5300    2.5400    2.5500
    2.5600    2.5700    2.5800    2.5900    2.6000    2.6100    2.6200    2.6300
    2.6400    2.6500    2.6600    2.6700    2.6800    2.6900    2.7000    2.7100
    2.7200    2.7300    2.7400    2.7500    2.7600    2.7700    2.7800    2.7900
    2.8000    2.8100    2.8200    2.8300    2.8400    2.8500    2.8600    2.8700
    2.8800    2.8900    2.9000    2.9100    2.9200    2.9300    2.9400    2.9500
    2.9600    2.9700    2.9800    2.9900    3.0000    3.0100    3.0200    3.0300
    3.0400    3.0500    3.0600    3.0700    3.0800    3.0900    3.1000    3.1100
    3.1200    3.1300    3.1400    3.1500    3.1600    3.1700    3.1800    3.1900
    3.2000    3.2100    3.2200    3.2300    3.2400    3.2500    3.2600    3.2700
    3.2800    3.2900    3.3000    3.3100    3.3200    3.3300    3.3400    3.3500
    3.3600    3.3700    3.3800    3.3900    3.4000    3.4100    3.4200    3.4300
    3.4400    3.4500    3.4600    3.4700    3.4800    3.4900    3.5000    3.5100
    3.5200    3.5300    3.5400    3.5500    3.5600    3.5700    3.5800    3.5900
    3.6000    3.6100    3.6200    3.6300    3.6400    3.6500    3.6600    3.6700
    3.6800    3.6900    3.7000    3.7100    3.7200    3.7300    3.7400    3.7500
    3.7600    3.7700    3.7800    3.7900    3.8000    3.8100    3.8200    3.8300
    3.8400    3.8500    3.8600    3.8700    3.8800    3.8900    3.9000    3.9100
    3.9200    3.9300    3.9400    3.9500    3.9600    3.9700    3.9800    3.9900
    4.0000    4.0100    4.0200    4.0300    4.0400    4.0500    4.0600    4.0700
    4.0800    4.0900    4.1000    4.1100    4.1200    4.1300    4.1400    4.1500
    4.1600    4.1700    4.1800    4.1900    4.2000    4.2100    4.2200    4.2300
    4.2400    4.2500    4.2600    4.2700    4.2800    4.2900    4.3000    4.3100
    4.3200    4.3300    4.3400    4.3500    4.3600    4.3700    4.3800    4.3900
    4.4000    4.4100    4.4200    4.4300    4.4400    4.4500    4.4600    4.4700
    4.4800    4.4900    4.5000    4.5100    4.5200    4.5300    4.5400    4.5500
    4.5600    4.5700    4.5800    4.5900    4.6000    4.6100    4.6200    4.6300
    4.6400    4.6500    4.6600    4.6700    4.6800    4.6900    4.7000    4.7100
    4.7200    4.7300    4.7400    4.7500    4.7600    4.7700    4.7800    4.7900
    4.8000    4.8100    4.8200    4.8300    4.8400    4.8500    4.8600    4.8700
    4.8800    4.8900    4.9000    4.9100    4.9200    4.9300    4.9400    4.9500
    4.9600    4.9700    4.9800    4.9900    5.0000    5.0100    5.0200    5.0300
    5.0400    5.0500    5.0600    5.0700    5.0800    5.0900    5.1000    5.1100
    5.1200    5.1300    5.1400    5.1500    5.1600    5.1700    5.1800    5.1900
    5.2000    5.2100    5.2200    5.2300    5.2400    5.2500    5.2600    5.2700
    5.2800    5.2900    5.3000    5.3100    5.3200    5.3300    5.3400    5.3500
    5.3600    5.3700    5.3800    5.3900    5.4000    5.4100    5.4200    5.4300
    5.4400    5.4500    5.4600    5.4700    5.4800    5.4900    5.5000    5.5100
    5.5200    5.5300    5.5400    5.5500    5.5600    5.5700    5.5800    5.5900
    5.6000    5.6100    5.6200    5.6300    5.6400    5.6500    5.6600    5.6700
    5.6800    5.6900    5.7000    5.7100    5.7200    5.7300    5.7400    5.7500
    5.7600    5.7700    5.7800    5.7900    5.8000    5.8100    5.8200    5.8300
    5.8400    5.8500    5.8600    5.8700    5.8800    5.8900    5.9000    5.9100
    5.9200    5.9300    5.9400    5.9500    5.9600    5.9700    5.9800    5.9900
    6.0000    6.0100    6.0200    6.0300    6.0400    6.0500    6.0600    6.0700
    6.0800    6.0900    6.1000    6.1100    6.1200    6.1300    6.1400    6.1500
    6.1600    6.1700    6.1800    6.1900    6.2000    6.2100    6.2200    6.2300
    6.2400    6.2500    6.2600    6.2700    6.2800    6.2900    6.3000    6.3100
    6.3200    6.3300    6.3400    6.3500    6.3600    6.3700    6.3800    6.3900
    6.4000    6.4100    6.4200    6.4300    6.4400    6.4500    6.4600    6.4700
    6.4800    6.4900    6.5000    6.5100    6.5200    6.5300    6.5400    6.5500
    6.5600    6.5700    6.5800    6.5900    6.6000    6.6100    6.6200    6.6300
    6.6400    6.6500    6.6600    6.6700    6.6800    6.6900    6.7000    6.7100
    6.7200    6.7300    6.7400    6.7500    6.7600    6.7700    6.7800    6.7900
    6.8000    6.8100    6.8200    6.8300    6.8400    6.8500    6.8600    6.8700
    6.8800    6.8900    6.9000    6.9100    6.9200    6.9300    6.9400    6.9500
    6.9600    6.9700    6.9800    6.9900    7.0000    7.0100    7.0200    7.0300
    7.0400    7.0500    7.0600    7.0700    7.0800    7.0900    7.1000    7.1100
    7.1200    7.1300    7.1400    7.1500    7.1600    7.1700    7.1800    7.1900
    7.2000    7.2100    7.2200    7.2300    7.2400    7.2500    7.2600    7.2700
    7.2800    7.2900    7.3000    7.3100    7.3200    7.3300    7.3400    7.3500
    7.3600    7.3700    7.3800    7.3900    7.4000    7.4100    7.4200    7.4300
    7.4400    7.4500    7.4600    7.4700    7.4800    7.4900    7.5000    7.5100
    7.5200    7.5300    7.5400    7.5500    7.5600    7.5700    7.5800    7.5900
    7.6000    7.6100    7.6200    7.6300    7.6400    7.6500    7.6600    7.6700
    7.6800    7.6900    7.7000    7.7100    7.7200    7.7300    7.7400    7.7500
    7.7600    7.7700    7.7800    7.7900    7.8000    7.8100    7.8200    7.8300
    7.8400    7.8500    7.8600    7.8700    7.8800    7.8900    7.9000    7.9100
    7.9200    7.9300    7.9400    7.9500    7.9600    7.9700    7.9800    7.9900
    8.0000    8.0100    8.0200    8.0300    8.0400    8.0500    8.0600    8.0700
    8.0800    8.0900    8.1000    8.1100    8.1200    8.1300    8.1400    8.1500
    8.1600    8.1700    8.1800    8.1900    8.2000    8.2100    8.2200    8.2300
    8.2400    8.2500    8.2600    8.2700
   </PP_R>
   <PP_RAB type="real"  size=" 828" columns="8">
    0.0100    0.0100    0.0100    0.0100    0.0100    0.0100    0.0100    0.0100
    0.0100    0.0100    0.0100    0.0100    0.0100    0.0100    0.0100    0.0100
    0.0100    0.0100    0.0100    0.0100    0.0100    0.0100    0.0100    0.0100
    0.0100    0.0100    0.0100    0.0100    0.0100    0.0100    0.0100    0.0100
    0.0100    0.0100    0.0100    0.0100    0.0100    0.0100    0.0100    0.0100
    0.0100    0.0100    0.0100    0.0100    0.0100    0.0100    0.0100    0.0100
    0.0100    0.0100    0.0100    0.0100    0.0100    0.0100    0.0100    0.0100
    0.0100    0.0100    0.0100    0.0100    0.0100    0.0100    0.0100    0.0100
    0.0100    0.0100    0.0100    0.0100    0.0100    0.0100    0.0100    0.0100
    0.0100    0.0100    0.0100    0.0100    0.0100    0.0100    0.0100    0.0100
    0.0100    0.0100    0.0100    0.0100    0.0100    0.0100    0.0100    0.0100
    0.0100    0.0100    0.0100    0.0100    0.0100    0.0100    0.0100    0.0100
    0.0100    0.0100    0.0100    0.0100    0.0100    0.0100    0.0100    0.0100
    0.0100    0.0100    0.0100    0.0100    0.0100    0.0100    0.0100    0.0100
    0.0100    0.0100    0.0100    0.0100    0.0100    0.0100    0.0100    0.0100
    0.0100    0.0100    0.0100    0.0100    0.0100    0.0100    0.0100    0.0100
    0.0100    0.0100    0.0100    0.0100    0.0100    0.0100    0.0100    0.0100
    0.0100    0.0100    0.0100    0.0100    0.0100    0.0100    0.0100    0.0100
    0.0100    0.0100    0.0100    0.0100    0.0100    0.0100    0.0100    0.0100
    0.0100    0.0100    0.0100    0.0100    0.0100    0.0100    0.0100    0.0100
    0.0100    0.0100    0.0100    0.0100    0.0100    0.0100    0.0100    0.0100
    0.0100    0.0100    0.0100    0.0100    0.0100    0.0100    0.0100    0.0100
    0.0100    0.0100    0.0100    0.0100    0.0100    0.0100    0.0100    0.0100
    0.0100    0.0100    0.0100    0.0100    0.0100    0.0100    0.0100    0.0100
    0.0100    0.0100    0.0100    0.0100    0.0100    0.0100    0.0100    0.0100
    0.0100    0.0100    0.0100    0.0100    0.0100    0.0100    0.0100    0.0100
    0.0100    0.0100    0.0100    0.0100    0.0100    0.0100    0.0100    0.0100
    0.0100    0.0100    0.0100    0.0100    0.0100    0.0100    0.0100    0.0100
    0.0100    0.0100    0.0100    0.0100    0.0100    0.0100    0.0100    0.0100
    0.0100    0.0100    0.0100    0.0100    0.0100    0.0100    0.0100    0.0100
    0.0100    0.0100    0.0100    0.0100    0.0100    0.0100    0.0100    0.0100
    0.0100    0.0100    0.0100    0.0100    0.0100    0.0100    0.0100    0.0100
    0.0100    0.0100    0.0100    0.0100    0.0100    0.0100    0.0100    0.0100
    0.0100    0.0100    0.0100    0.0100    0.0100    0.0100    0.0100    0.0100
    0.0100    0.0100    0.0100    0.0100    0.0100    0.0100    0.0100    0.0100
    0.0100    0.0100    0.0100    0.0100    0.0100    0.0100    0.0100    0.0100
    0.0100    0.0100    0.0100    0.0100    0.0100    0.0100    0.0100    0.0100
    0.0100    0.0100    0.0100    0.0100    0.0100    0.0100    0.0100    0.0100
    0.0100    0.0100    0.0100    0.0100    0.0100    0.0100    0.0100    0.0100
    0.0100    0.0100    0.0100    0.0100    0.0100    0.0100    0.0100    0.0100
    0.0100    0.0100    0.0100    0.0100    0.0100    0.0100    0.0100    0.0100
    0.0100    0.0100    0.0100    0.0100    0.0100    0.0100    0.0100    0.0100
    0.0100    0.0100    0.0100    0.0100    0.0100    0.0100    0.0100    0.0100
    0.0100    0.0100    0.0100    0.0100    0.0100    0.0100    0.0100    0.0100
    0.0100    0.0100    0.0100    0.0100    0.0100    0.0100    0.0100    0.0100
    0.0100    0.0100    0.0100    0.0100    0.0100    0.0100    0.0100    0.0100
    0.0100    0.0100    0.0100    0.0100    0.0100    0.0100    0.0100    0.0100
    0.0100    0.0100    0.0100    0.0100    0.0100    0.0100    0.0100    0.0100
    0.0100    0.0100    0.0100    0.0100    0.0100    0.0100    0.0100    0.0100
    0.0100    0.0100    0.0100    0.0100    0.0100    0.0100    0.0100    0.0100
    0.0100    0.0100    0.0100    0.0100    0.0100    0.0100    0.0100    0.0100
    0.0100    0.0100    0.0100    0.0100    0.0100    0.0100    0.0100    0.0100
    0.0100    0.0100    0.0100    0.0100    0.0100    0.0100    0.0100    0.0100
    0.0100    0.0100    0.0100    0.0100    0.0100    0.0100    0.0100    0.0100
    0.0100    0.0100    0.0100    0.0100    0.0100    0.0100    0.0100    0.0100
    0.0100    0.0100    0.0100    0.0100    0.0100    0.0100    0.0100    0.0100
    0.0100    0.0100    0.0100    0.0100    0.0100    0.0100    0.0100    0.0100
    0.0100    0.0100    0.0100    0.0100    0.0100    0.0100    0.0100    0.0100
    0.0100    0.0100    0.0100    0.0100    0.0100    0.0100    0.0100    0.0100
    0.0100    0.0100    0.0100    0.0100    0.0100    0.0100    0.0100    0.0100
    0.0100    0.0100    0.0100    0.0100    0.0100    0.0100    0.0100    0.0100
    0.0100    0.0100    0.0100    0.0100    0.0100    0.0100    0.0100    0.0100
    0.0100    0.0100    0.0100    0.0100    0.0100    0.0100    0.0100    0.0100
    0.0100    0.0100    0.0100    0.0100    0.0100    0.0100    0.0100    0.0100
    0.0100    0.0100    0.0100    0.0100    0.0100    0.0100    0.0100    0.0100
    0.0100    0.0100    0.0100    0.0100    0.0100    0.0100    0.0100    0.0100
    0.0100    0.0100    0.0100    0.0100    0.0100    0.0100    0.0100    0.0100
    0.0100    0.0100    0.0100    0.0100    0.0100    0.0100    0.0100    0.0100
    0.0100    0.0100    0.0100    0.0100    0.0100    0.0100    0.0100    0.0100
    0.0100    0.0100    0.0100    0.0100    0.0100    0.0100    0.0100    0.0100
    0.0100    0.0100    0.0100    0.0100    0.0100    0.0100    0.0100    0.0100
    0.0100    0.0100    0.0100    0.0100    0.0100    0.0100    0.0100    0.0100
    0.0100    0.0100    0.0100    0.0100    0.0100    0.0100    0.0100    0.0100
    0.0100    0.0100    0.0100    0.0100    0.0100    0.0100    0.0100    0.0100
    0.0100    0.0100    0.0100    0.0100    0.0100    0.0100    0.0100    0.0100
    0.0100    0.0100    0.0100    0.0100    0.0100    0.0100    0.0100    0.0100
    0.0100    0.0100    0.0100    0.0100    0.0100    0.0100    0.0100    0.0100
    0.0100    0.0100    0.0100    0.0100    0.0100    0.0100    0.0100    0.0100
    0.0100    0.0100    0.0100    0.0100    0.0100    0.0100    0.0100    0.0100
    0.0100    0.0100    0.0100    0.0100    0.0100    0.0100    0.0100    0.0100
    0.0100    0.0100    0.0100    0.0100    0.0100    0.0100    0.0100    0.0100
    0.0100    0.0100    0.0100    0.0100    0.0100    0.0100    0.0100    0.0100
    0.0100    0.0100    0.0100    0.0100    0.0100    0.0100    0.0100    0.0100
    0.0100    0.0100    0.0100    0.0100    0.0100    0.0100    0.0100    0.0100
    0.0100    0.0100    0.0100    0.0100    0.0100    0.0100    0.0100    0.0100
    0.0100    0.0100    0.0100    0.0100    0.0100    0.0100    0.0100    0.0100
    0.0100    0.0100    0.0100    0.0100    0.0100    0.0100    0.0100    0.0100
    0.0100    0.0100    0.0100    0.0100    0.0100    0.0100    0.0100    0.0100
    0.0100    0.0100    0.0100    0.0100    0.0100    0.0100    0.0100    0.0100
    0.0100    0.0100    0.0100    0.0100    0.0100    0.0100    0.0100    0.0100
    0.0100    0.0100    0.0100    0.0100    0.0100    0.0100    0.0100    0.0100
    0.0100    0.0100    0.0100    0.0100    0.0100    0.0100    0.0100    0.0100
    0.0100    0.0100    0.0100    0.0100    0.0100    0.0100    0.0100    0.0100
    0.0100    0.0100    0.0100    0.0100    0.0100    0.0100    0.0100    0.0100
    0.0100    0.0100    0.0100    0.0100    0.0100    0.0100    0.0100    0.0100
    0.0100    0.0100    0.0100    0.0100    0.0100    0.0100    0.0100    0.0100
    0.0100    0.0100    0.0100    0.0100    0.0100    0.0100    0.0100    0.0100
    0.0100    0.0100    0.0100    0.0100    0.0100    0.0100    0.0100    0.0100
    0.0100    0.0100    0.0100    0.0100    0.0100    0.0100    0.0100    0.0100
    0.0100    0.0100    0.0100    0.0100    0.0100    0.0100    0.0100    0.0100
    0.0100    0.0100    0.0100    0.0100    0.0100    0.0100    0.0100    0.0100
    0.0100    0.0100    0.0100    0.0100    0.0100    0.0100    0.0100    0.0100
    0.0100    0.0100    0.0100    0.0100    0.0100    0.0100    0.0100    0.0100
    0.0100    0.0100    0.0100    0.0100
   </PP_RAB>
 </PP_MESH>
  <PP_LOCAL type="real"  size=" 828" columns="4">
   -3.1597138924E+01   -3.1593159548E+01   -3.1581234942E+01   -3.1561405347E+01
   -3.1533736368E+01   -3.1498316938E+01   -3.1455256674E+01   -3.1404682830E+01
   -3.1346737038E+01   -3.1281572026E+01   -3.1209348478E+01   -3.1130232169E+01
   -3.1044391443E+01   -3.0951995097E+01   -3.0853210684E+01   -3.0748203218E+01
   -3.0637134248E+01   -3.0520161267E+01   -3.0397437401E+01   -3.0269111332E+01
   -3.0135327403E+01   -2.9996225867E+01   -2.9851943241E+01   -2.9702612730E+01
   -2.9548364700E+01   -2.9389327172E+01   -2.9225626320E+01   -2.9057386975E+01
   -2.8884733098E+01   -2.8707788241E+01   -2.8526675968E+01   -2.8341520260E+01
   -2.8152445868E+01   -2.7959578640E+01   -2.7763045815E+01   -2.7562976264E+01
   -2.7359500720E+01   -2.7152751947E+01   -2.6942864893E+01   -2.6729976803E+01
   -2.6514227298E+01   -2.6295758427E+01   -2.6074714687E+01   -2.5851243017E+01
   -2.5625492761E+01   -2.5397615611E+01   -2.5167765518E+01   -2.4936098591E+01
   -2.4702772964E+01   -2.4467948646E+01   -2.4231787355E+01   -2.3994452332E+01
   -2.3756108134E+01   -2.3516920423E+01   -2.3277055728E+01   -2.3036681203E+01
   -2.2795964367E+01   -2.2555072842E+01   -2.2314174071E+01   -2.2073435035E+01
   -2.1833021958E+01   -2.1593100009E+01   -2.1353832998E+01   -2.1115383061E+01
   -2.0877910351E+01   -2.0641572717E+01   -2.0406525389E+01   -2.0172920648E+01
   -1.9940907511E+01   -1.9710631402E+01   -1.9482233831E+01   -1.9255852066E+01
   -1.9031618813E+01   -1.8809661892E+01   -1.8590103912E+01   -1.8373061956E+01
   -1.8158647254E+01   -1.7946964871E+01   -1.7738113389E+01   -1.7532184587E+01
   -1.7329263134E+01   -1.7129426271E+01   -1.6932743502E+01   -1.6739276280E+01
   -1.6549077702E+01   -1.6362192195E+01   -1.6178655210E+01   -1.5998492912E+01
   -1.5821721868E+01   -1.5648348743E+01   -1.5478369982E+01   -1.5311771504E+01
   -1.5148528386E+01   -1.4988604549E+01   -1.4831952439E+01   -1.4678512709E+01
   -1.4528213897E+01   -1.4380972129E+01   -1.4236694020E+01   -1.4095286578E+01
   -1.3956660604E+01   -1.3820730549E+01   -1.3687414356E+01   -1.3556633299E+01
   -1.3428311841E+01   -1.3302377491E+01   -1.3178760672E+01   -1.3057394599E+01
   -1.2938215156E+01   -1.2821160783E+01   -1.2706172369E+01   -1.2593193146E+01
   -1.2482168590E+01   -1.2373046327E+01   -1.2265776034E+01   -1.2160309268E+01
   -1.2056600836E+01   -1.1954611164E+01   -1.1854323530E+01   -1.1755607227E+01
   -1.1658492639E+01   -1.1562928574E+01   -1.1468878076E+01   -1.1376305685E+01
   -1.1285177180E+01   -1.1195459561E+01   -1.1107120989E+01   -1.1020130730E+01
   -1.0934459090E+01   -1.0850077368E+01   -1.0766957800E+01   -1.0685073508E+01
   -1.0604398455E+01   -1.0524907394E+01   -1.0446575833E+01   -1.0369379985E+01
   -1.0293296734E+01   -1.0218303602E+01   -1.0144378707E+01   -1.0071500739E+01
   -9.9996489262E+00   -9.9288030099E+00   -9.8589432199E+00   -9.7900502512E+00
   -9.7221052441E+00   -9.6550897654E+00   -9.5889857919E+00   -9.5237756960E+00
   -9.4594422322E+00   -9.3959685258E+00   -9.3333380630E+00   -9.2715346821E+00
   -9.2105425660E+00   -9.1503462356E+00   -9.0909305446E+00   -9.0322806741E+00
   -8.9743821286E+00   -8.9172207322E+00   -8.8607826253E+00   -8.8050542612E+00
   -8.7500224029E+00   -8.6956741194E+00   -8.6419967814E+00   -8.5889780568E+00
   -8.5366059060E+00   -8.4848685759E+00   -8.4337545945E+00   -8.3832527637E+00
   -8.3333521522E+00   -8.2840420871E+00   -8.2353121470E+00   -8.1871521539E+00
   -8.1395521669E+00   -8.0925024746E+00   -8.0459935890E+00   -8.0000162390E+00
   -7.9545613643E+00   -7.9096201091E+00   -7.8651838168E+00   -7.8212440243E+00
   -7.7777924564E+00   -7.7348210208E+00   -7.6923218032E+00   -7.6502870621E+00
   -7.6087092246E+00   -7.5675808811E+00   -7.5268947819E+00   -7.4866438318E+00
   -7.4468210869E+00   -7.4074197503E+00   -7.3684331681E+00   -7.3298548256E+00
   -7.2916783441E+00   -7.2538974769E+00   -7.2165061063E+00   -7.1794982398E+00
   -7.1428680075E+00   -7.1066096585E+00   -7.0707175581E+00   -7.0351861850E+00
   -7.0000101281E+00   -6.9651840843E+00   -6.9307028551E+00   -6.8965613448E+00
   -6.8627545575E+00   -6.8292775947E+00   -6.7961256531E+00   -6.7632940221E+00
   -6.7307780820E+00   -6.6985733011E+00   -6.6666752343E+00   -6.6350795208E+00
   -6.6037818818E+00   -6.5727781191E+00   -6.5420641128E+00   -6.5116358200E+00
   -6.4814892722E+00   -6.4516205743E+00   -6.4220259027E+00   -6.3927015036E+00
   -6.3636436914E+00   -6.3348488472E+00   -6.3063134173E+00   -6.2780339120E+00
   -6.2500069035E+00   -6.2222290252E+00   -6.1946969702E+00   -6.1674074894E+00
   -6.1403573913E+00   -6.1135435397E+00   -6.0869628531E+00   -6.0606123034E+00
   -6.0344889147E+00   -6.0085897621E+00   -5.9829119708E+00   -5.9574527148E+00
   -5.9322092162E+00   -5.9071787438E+00   -5.8823586124E+00   -5.8577461818E+00
   -5.8333388555E+00   -5.8091340806E+00   -5.7851293459E+00   -5.7613221819E+00
   -5.7377101593E+00   -5.7142908886E+00   -5.6910620193E+00   -5.6680212387E+00
   -5.6451662716E+00   -5.6224948791E+00   -5.6000048585E+00   -5.5776940419E+00
   -5.5555602959E+00   -5.5336015208E+00   -5.5118156501E+00   -5.4902006495E+00
   -5.4687545167E+00   -5.4474752805E+00   -5.4263610001E+00   -5.4054097649E+00
   -5.3846196936E+00   -5.3639889336E+00   -5.3435156609E+00   -5.3231980790E+00
   -5.3030344186E+00   -5.2830229373E+00   -5.2631619187E+00   -5.2434496722E+00
   -5.2238845324E+00   -5.2044648588E+00   -5.1851890351E+00   -5.1660554687E+00
   -5.1470625908E+00   -5.1282088552E+00   -5.1094927385E+00   -5.0909127394E+00
   -5.0724673783E+00   -5.0541551970E+00   -5.0359747585E+00   -5.0179246460E+00
   -5.0000034632E+00   -4.9822098336E+00   -4.9645424003E+00   -4.9469998255E+00
   -4.9295807903E+00   -4.9122839942E+00   -4.8951081551E+00   -4.8780520084E+00
   -4.8611143075E+00   -4.8442938228E+00   -4.8275893418E+00   -4.8109996684E+00
   -4.7945236232E+00   -4.7781600426E+00   -4.7619077793E+00   -4.7457657010E+00
   -4.7297326910E+00   -4.7138076476E+00   -4.6979894840E+00   -4.6822771277E+00
   -4.6666695207E+00   -4.6511656189E+00   -4.6357643922E+00   -4.6204648239E+00
   -4.6052659109E+00   -4.5901666631E+00   -4.5751661033E+00   -4.5602632673E+00
   -4.5454572032E+00   -4.5307469713E+00   -4.5161316443E+00   -4.5016103068E+00
   -4.4871820549E+00   -4.4728459965E+00   -4.4586012507E+00   -4.4444469479E+00
   -4.4303822295E+00   -4.4164062476E+00   -4.4025181652E+00   -4.3887171555E+00
   -4.3750024022E+00   -4.3613730993E+00   -4.3478284506E+00   -4.3343676697E+00
   -4.3209899803E+00   -4.3076946153E+00   -4.2944808170E+00   -4.2813478372E+00
   -4.2682949367E+00   -4.2553213852E+00   -4.2424264614E+00   -4.2296094527E+00
   -4.2168696550E+00   -4.2042063728E+00   -4.1916189186E+00   -4.1791066136E+00
   -4.1666687867E+00   -4.1543047748E+00   -4.1420139230E+00   -4.1297955836E+00
   -4.1176491169E+00   -4.1055738905E+00   -4.0935692797E+00   -4.0816346666E+00
   -4.0697694409E+00   -4.0579729993E+00   -4.0462447452E+00   -4.0345840893E+00
   -4.0229904486E+00   -4.0114632473E+00   -4.0000019158E+00   -3.9886058911E+00
   -3.9772746166E+00   -3.9660075420E+00   -3.9548041233E+00   -3.9436638226E+00
   -3.9325861078E+00   -3.9215704532E+00   -3.9106163386E+00   -3.8997232498E+00
   -3.8888906782E+00   -3.8781181209E+00   -3.8674050806E+00   -3.8567510654E+00
   -3.8461555888E+00   -3.8356181696E+00   -3.8251383320E+00   -3.8147156054E+00
   -3.8043495240E+00   -3.7940396274E+00   -3.7837854601E+00   -3.7735865713E+00
   -3.7634425153E+00   -3.7533528511E+00   -3.7433171424E+00   -3.7333349575E+00
   -3.7234058693E+00   -3.7135294555E+00   -3.7037052978E+00   -3.6939329828E+00
   -3.6842121010E+00   -3.6745422475E+00   -3.6649230215E+00   -3.6553540265E+00
   -3.6458348701E+00   -3.6363651639E+00   -3.6269445236E+00   -3.6175725688E+00
   -3.6082489231E+00   -3.5989732139E+00   -3.5897450725E+00   -3.5805641339E+00
   -3.5714300369E+00   -3.5623424239E+00   -3.5533009409E+00   -3.5443052376E+00
   -3.5353549672E+00   -3.5264497863E+00   -3.5175893551E+00   -3.5087733372E+00
   -3.5000013994E+00   -3.4912732119E+00   -3.4825884483E+00   -3.4739467852E+00
   -3.4653479028E+00   -3.4567914839E+00   -3.4482772150E+00   -3.4398047852E+00
   -3.4313738870E+00   -3.4229842156E+00   -3.4146354696E+00   -3.4063273501E+00
   -3.3980595612E+00   -3.3898318102E+00   -3.3816438067E+00   -3.3734952635E+00
   -3.3653858960E+00   -3.3573154224E+00   -3.3492835636E+00   -3.3412900430E+00
   -3.3333345868E+00   -3.3254169237E+00   -3.3175367852E+00   -3.3096939050E+00
   -3.3018880195E+00   -3.2941188677E+00   -3.2863861908E+00   -3.2786897325E+00
   -3.2710292390E+00   -3.2634044587E+00   -3.2558151426E+00   -3.2482610438E+00
   -3.2407419176E+00   -3.2332575219E+00   -3.2258076164E+00   -3.2183919634E+00
   -3.2110103272E+00   -3.2036624743E+00   -3.1963481732E+00   -3.1890671946E+00
   -3.1818193115E+00   -3.1746042986E+00   -3.1674219328E+00   -3.1602719930E+00
   -3.1531542603E+00   -3.1460685173E+00   -3.1390145490E+00   -3.1319921421E+00
   -3.1250010852E+00   -3.1180411689E+00   -3.1111121856E+00   -3.1042139295E+00
   -3.0973461966E+00   -3.0905087849E+00   -3.0837014940E+00   -3.0769241252E+00
   -3.0701764818E+00   -3.0634583685E+00   -3.0567695920E+00   -3.0501099604E+00
   -3.0434792839E+00   -3.0368773738E+00   -3.0303040434E+00   -3.0237591076E+00
   -3.0172423827E+00   -3.0107536867E+00   -3.0042928392E+00   -2.9978596614E+00
   -2.9914539757E+00   -2.9850756064E+00   -2.9787243791E+00   -2.9724001210E+00
   -2.9661026605E+00   -2.9598318278E+00   -2.9535874544E+00   -2.9473693730E+00
   -2.9411774180E+00   -2.9350114252E+00   -2.9288712314E+00   -2.9227566753E+00
   -2.9166675964E+00   -2.9106038360E+00   -2.9045652364E+00   -2.8985516414E+00
   -2.8925628959E+00   -2.8865988463E+00   -2.8806593402E+00   -2.8747442262E+00
   -2.8688533546E+00   -2.8629865765E+00   -2.8571437444E+00   -2.8513247121E+00
   -2.8455293344E+00   -2.8397574673E+00   -2.8340089682E+00   -2.8282836953E+00
   -2.8225815081E+00   -2.8169022675E+00   -2.8112458350E+00   -2.8056120736E+00
   -2.8000008472E+00   -2.7944120210E+00   -2.7888454610E+00   -2.7833010345E+00
   -2.7777786096E+00   -2.7722780558E+00   -2.7667992433E+00   -2.7613420434E+00
   -2.7559063286E+00   -2.7504919722E+00   -2.7450988486E+00   -2.7397268331E+00
   -2.7343758021E+00   -2.7290456327E+00   -2.7237362034E+00   -2.7184473932E+00
   -2.7131790822E+00   -2.7079311516E+00   -2.7027034833E+00   -2.6974959601E+00
   -2.6923084659E+00   -2.6871408852E+00   -2.6819931038E+00   -2.6768650079E+00
   -2.6717564849E+00   -2.6666674230E+00   -2.6615977111E+00   -2.6565472391E+00
   -2.6515158977E+00   -2.6465035784E+00   -2.6415101735E+00   -2.6365355761E+00