<UPF version="2.0.1">
  <PP_INFO>

 This pseudopotential file has been produced using the code
 ONCVPSP  (Optimized Norm-Conservinng Vanderbilt PSeudopotential)
 scalar-relativistic version 4.0.1 06/04/2019 by D. R. Hamann
 The code is available through a link at URL www.mat-simresearch.com.
 Documentation with the package provides a full discription of the
 input data below.


 While it is not required under the terms of the GNU GPL, it is
 suggested that you cite D. R. Hamann, Phys. Rev. B 88, 085117 (2013)
 in any publication using these pseudopotentials.

    <PP_INPUTFILE>
# ATOM AND REFERENCE CONFIGURATION
# atsym  z   nc   nv     iexc    psfile
  He  2.00    0    1       3      upf
#
#   n    l    f        energy (Ha)
    1    0    2.00
#
# PSEUDOPOTENTIAL AND OPTIMIZATION
# lmax
    0
#
#   l,   rc,      ep,       ncon, nbas, qcut
    0   1.98530   0.00000    5    8   7.17231
#
# LOCAL POTENTIAL
# lloc, lpopt,  rc(5),   dvloc0
    4    5   0.89431      0.00000
#
# VANDERBILT-KLEINMAN-BYLANDER PROJECTORs
# l, nproj, debl
    0    2   1.34022
#
# MODEL CORE CHARGE
# icmod, fcfact, rcfact
    0   0.00000   0.00000
#
# LOG DERIVATIVE ANALYSIS
# epsh1, epsh2, depsh
   -5.00    3.00    0.02
#
# OUTPUT GRID
# rlmax, drl
    6.00    0.01
#
# TEST CONFIGURATIONS
# ncnf
    0
# nvcnf
#   n    l    f
    </PP_INPUTFILE>
  </PP_INFO>
  <!--                               -->
  <!-- END OF HUMAN READABLE SECTION -->
  <!--                               -->
    <PP_HEADER
       generated="Generated using ONCVPSP code by D. R. Hamann"
       author="anonymous"
       date="220414"
       comment=""
       element="He"
       pseudo_type="NC"
       relativistic="scalar"
       is_ultrasoft="F"
       is_paw="F"
       is_coulomb="F"
       has_so="F"
       has_wfc="F"
       has_gipaw="F"
       core_correction="F"
       functional="PZ"
       z_valence="    2.00"
       total_psenergy="  -5.48329387737E+00"
       rho_cutoff="   7.31000000000E+00"
       l_max="0"
       l_local="-1"
       mesh_size="   732"
       number_of_wfc="1"
       number_of_proj="2"/>
 <PP_MESH>
   <PP_R type="real"  size=" 732" columns="8">
    0.0000    0.0100    0.0200    0.0300    0.0400    0.0500    0.0600    0.0700
    0.0800    0.0900    0.1000    0.1100    0.1200    0.1300    0.1400    0.1500
    0.1600    0.1700    0.1800    0.1900    0.2000    0.2100    0.2200    0.2300
    0.2400    0.2500    0.2600    0.2700    0.2800    0.2900    0.3000    0.3100
    0.3200    0.3300    0.3400    0.3500    0.3600    0.3700    0.3800    0.3900
    0.4000    0.4100    0.4200    0.4300    0.4400    0.4500    0.4600    0.4700
    0.4800    0.4900    0.5000    0.5100    0.5200    0.5300    0.5400    0.5500
    0.5600    0.5700    0.5800    0.5900    0.6000    0.6100    0.6200    0.6300
    0.6400    0.6500    0.6600    0.6700    0.6800    0.6900    0.7000    0.7100
    0.7200    0.7300    0.7400    0.7500    0.7600    0.7700    0.7800    0.7900
    0.8000    0.8100    0.8200    0.8300    0.8400    0.8500    0.8600    0.8700
    0.8800    0.8900    0.9000    0.9100    0.9200    0.9300    0.9400    0.9500
    0.9600    0.9700    0.9800    0.9900    1.0000    1.0100    1.0200    1.0300
    1.0400    1.0500    1.0600    1.0700    1.0800    1.0900    1.1000    1.1100
    1.1200    1.1300    1.1400    1.1500    1.1600    1.1700    1.1800    1.1900
    1.2000    1.2100    1.2200    1.2300    1.2400    1.2500    1.2600    1.2700
    1.2800    1.2900    1.3000    1.3100    1.3200    1.3300    1.3400    1.3500
    1.3600    1.3700    1.3800    1.3900    1.4000    1.4100    1.4200    1.4300
    1.4400    1.4500    1.4600    1.4700    1.4800    1.4900    1.5000    1.5100
    1.5200    1.5300    1.5400    1.5500    1.5600    1.5700    1.5800    1.5900
    1.6000    1.6100    1.6200    1.6300    1.6400    1.6500    1.6600    1.6700
    1.6800    1.6900    1.7000    1.7100    1.7200    1.7300    1.7400    1.7500
    1.7600    1.7700    1.7800    1.7900    1.8000    1.8100    1.8200    1.8300
    1.8400    1.8500    1.8600    1.8700    1.8800    1.8900    1.9000    1.9100
    1.9200    1.9300    1.9400    1.9500    1.9600    1.9700    1.9800    1.9900
    2.0000    2.0100    2.0200    2.0300    2.0400    2.0500    2.0600    2.0700
    2.0800    2.0900    2.1000    2.1100    2.1200    2.1300    2.1400    2.1500
    2.1600    2.1700    2.1800    2.1900    2.2000    2.2100    2.2200    2.2300
    2.2400    2.2500    2.2600    2.2700    2.2800    2.2900    2.3000    2.3100
    2.3200    2.3300    2.3400    2.3500    2.3600    2.3700    2.3800    2.3900
    2.4000    2.4100    2.4200    2.4300    2.4400    2.4500    2.4600    2.4700
    2.4800    2.4900    2.5000    2.5100    2.5200    2.5300    2.5400    2.5500
    2.5600    2.5700    2.5800    2.5900    2.6000    2.6100    2.6200    2.6300
    2.6400    2.6500    2.6600    2.6700    2.6800    2.6900    2.7000    2.7100
    2.7200    2.7300    2.7400    2.7500    2.7600    2.7700    2.7800    2.7900
    2.8000    2.8100    2.8200    2.8300    2.8400    2.8500    2.8600    2.8700
    2.8800    2.8900    2.9000    2.9100    2.9200    2.9300    2.9400    2.9500
    2.9600    2.9700    2.9800    2.9900    3.0000    3.0100    3.0200    3.0300
    3.0400    3.0500    3.0600    3.0700    3.0800    3.0900    3.1000    3.1100
    3.1200    3.1300    3.1400    3.1500    3.1600    3.1700    3.1800    3.1900
    3.2000    3.2100    3.2200    3.2300    3.2400    3.2500    3.2600    3.2700
    3.2800    3.2900    3.3000    3.3100    3.3200    3.3300    3.3400    3.3500
    3.3600    3.3700    3.3800    3.3900    3.4000    3.4100    3.4200    3.4300
    3.4400    3.4500    3.4600    3.4700    3.4800    3.4900    3.5000    3.5100
    3.5200    3.5300    3.5400    3.5500    3.5600    3.5700    3.5800    3.5900
    3.6000    3.6100    3.6200    3.6300    3.6400    3.6500    3.6600    3.6700
    3.6800    3.6900    3.7000    3.7100    3.7200    3.7300    3.7400    3.7500
    3.7600    3.7700    3.7800    3.7900    3.8000    3.8100    3.8200    3.8300
    3.8400    3.8500    3.8600    3.8700    3.8800    3.8900    3.9000    3.9100
    3.9200    3.9300    3.9400    3.9500    3.9600    3.9700    3.9800    3.9900
    4.0000    4.0100    4.0200    4.0300    4.0400    4.0500    4.0600    4.0700
    4.0800    4.0900    4.1000    4.1100    4.1200    4.1300    4.1400    4.1500
    4.1600    4.1700    4.1800    4.1900    4.2000    4.2100    4.2200    4.2300
    4.2400    4.2500    4.2600    4.2700    4.2800    4.2900    4.3000    4.3100
    4.3200    4.3300    4.3400    4.3500    4.3600    4.3700    4.3800    4.3900
    4.4000    4.4100    4.4200    4.4300    4.4400    4.4500    4.4600    4.4700
    4.4800    4.4900    4.5000    4.5100    4.5200    4.5300    4.5400    4.5500
    4.5600    4.5700    4.5800    4.5900    4.6000    4.6100    4.6200    4.6300
    4.6400    4.6500    4.6600    4.6700    4.6800    4.6900    4.7000    4.7100
    4.7200    4.7300    4.7400    4.7500    4.7600    4.7700    4.7800    4.7900
    4.8000    4.8100    4.8200    4.8300    4.8400    4.8500    4.8600    4.8700
    4.8800    4.8900    4.9000    4.9100    4.9200    4.9300    4.9400    4.9500
    4.9600    4.9700    4.9800    4.9900    5.0000    5.0100    5.0200    5.0300
    5.0400    5.0500    5.0600    5.0700    5.0800    5.0900    5.1000    5.1100
    5.1200    5.1300    5.1400    5.1500    5.1600    5.1700    5.1800    5.1900
    5.2000    5.2100    5.2200    5.2300    5.2400    5.2500    5.2600    5.2700
    5.2800    5.2900    5.3000    5.3100    5.3200    5.3300    5.3400    5.3500
    5.3600    5.3700    5.3800    5.3900    5.4000    5.4100    5.4200    5.4300
    5.4400    5.4500    5.4600    5.4700    5.4800    5.4900    5.5000    5.5100
    5.5200    5.5300    5.5400    5.5500    5.5600    5.5700    5.5800    5.5900
    5.6000    5.6100    5.6200    5.6300    5.6400    5.6500    5.6600    5.6700
    5.6800    5.6900    5.7000    5.7100    5.7200    5.7300    5.7400    5.7500
    5.7600    5.7700    5.7800    5.7900    5.8000    5.8100    5.8200    5.8300
    5.8400    5.8500    5.8600    5.8700    5.8800    5.8900    5.9000    5.9100
    5.9200    5.9300    5.9400    5.9500    5.9600    5.9700    5.9800    5.9900
    6.0000    6.0100    6.0200    6.0300    6.0400    6.0500    6.0600    6.0700
    6.0800    6.0900    6.1000    6.1100    6.1200    6.1300    6.1400    6.1500
    6.1600    6.1700    6.1800    6.1900    6.2000    6.2100    6.2200    6.2300
    6.2400    6.2500    6.2600    6.2700    6.2800    6.2900    6.3000    6.3100
    6.3200    6.3300    6.3400    6.3500    6.3600    6.3700    6.3800    6.3900
    6.4000    6.4100    6.4200    6.4300    6.4400    6.4500    6.4600    6.4700
    6.4800    6.4900    6.5000    6.5100    6.5200    6.5300    6.5400    6.5500
    6.5600    6.5700    6.5800    6.5900    6.6000    6.6100    6.6200    6.6300
    6.6400    6.6500    6.6600    6.6700    6.6800    6.6900    6.7000    6.7100
    6.7200    6.7300    6.7400    6.7500    6.7600    6.7700    6.7800    6.7900
    6.8000    6.8100    6.8200    6.8300    6.8400    6.8500    6.8600    6.8700
    6.8800    6.8900    6.9000    6.9100    6.9200    6.9300    6.9400    6.9500
    6.9600    6.9700    6.9800    6.9900    7.0000    7.0100    7.0200    7.0300
    7.0400    7.0500    7.0600    7.0700    7.0800    7.0900    7.1000    7.1100
    7.1200    7.1300    7.1400    7.1500    7.1600    7.1700    7.1800    7.1900
    7.2000    7.2100    7.2200    7.2300    7.2400    7.2500    7.2600    7.2700
    7.2800    7.2900    7.3000    7.3100
   </PP_R>
   <PP_RAB type="real"  size=" 732" columns="8">
    0.0100    0.0100    0.0100    0.0100    0.0100    0.0100    0.0100    0.0100
    0.0100    0.0100    0.0100    0.0100    0.0100    0.0100    0.0100    0.0100
    0.0100    0.0100    0.0100    0.0100    0.0100    0.0100    0.0100    0.0100
    0.0100    0.0100    0.0100    0.0100    0.0100    0.0100    0.0100    0.0100
    0.0100    0.0100    0.0100    0.0100    0.0100    0.0100    0.0100    0.0100
    0.0100    0.0100    0.0100    0.0100    0.0100    0.0100    0.0100    0.0100
    0.0100    0.0100    0.0100    0.0100    0.0100    0.0100    0.0100    0.0100
    0.0100    0.0100    0.0100    0.0100    0.0100    0.0100    0.0100    0.0100
    0.0100    0.0100    0.0100    0.0100    0.0100    0.0100    0.0100    0.0100
    0.0100    0.0100    0.0100    0.0100    0.0100    0.0100    0.0100    0.0100
    0.0100    0.0100    0.0100    0.0100    0.0100    0.0100    0.0100    0.0100
    0.0100    0.0100    0.0100    0.0100    0.0100    0.0100    0.0100    0.0100
    0.0100    0.0100    0.0100    0.0100    0.0100    0.0100    0.0100    0.0100
    0.0100    0.0100    0.0100    0.0100    0.0100    0.0100    0.0100    0.0100
    0.0100    0.0100    0.0100    0.0100    0.0100    0.0100    0.0100    0.0100
    0.0100    0.0100    0.0100    0.0100    0.0100    0.0100    0.0100    0.0100
    0.0100    0.0100    0.0100    0.0100    0.0100    0.0100    0.0100    0.0100
    0.0100    0.0100    0.0100    0.0100    0.0100    0.0100    0.0100    0.0100
    0.0100    0.0100    0.0100    0.0100    0.0100    0.0100    0.0100    0.0100
    0.0100    0.0100    0.0100    0.0100    0.0100    0.0100    0.0100    0.0100
    0.0100    0.0100    0.0100    0.0100    0.0100    0.0100    0.0100    0.0100
    0.0100    0.0100    0.0100    0.0100    0.0100    0.0100    0.0100    0.0100
    0.0100    0.0100    0.0100    0.0100    0.0100    0.0100    0.0100    0.0100
    0.0100    0.0100    0.0100    0.0100    0.0100    0.0100    0.0100    0.0100
    0.0100    0.0100    0.0100    0.0100    0.0100    0.0100    0.0100    0.0100
    0.0100    0.0100    0.0100    0.0100    0.0100    0.0100    0.0100    0.0100
    0.0100    0.0100    0.0100    0.0100    0.0100    0.0100    0.0100    0.0100
    0.0100    0.0100    0.0100    0.0100    0.0100    0.0100    0.0100    0.0100
    0.0100    0.0100    0.0100    0.0100    0.0100    0.0100    0.0100    0.0100
    0.0100    0.0100    0.0100    0.0100    0.0100    0.0100    0.0100    0.0100
    0.0100    0.0100    0.0100    0.0100    0.0100    0.0100    0.0100    0.0100
    0.0100    0.0100    0.0100    0.0100    0.0100    0.0100    0.0100    0.0100
    0.0100    0.0100    0.0100    0.0100    0.0100    0.0100    0.0100    0.0100
    0.0100    0.0100    0.0100    0.0100    0.0100    0.0100    0.0100    0.0100
    0.0100    0.0100    0.0100    0.0100    0.0100    0.0100    0.0100    0.0100
    0.0100    0.0100    0.0100    0.0100    0.0100    0.0100    0.0100    0.0100
    0.0100    0.0100    0.0100    0.0100    0.0100    0.0100    0.0100    0.0100
    0.0100    0.0100    0.0100    0.0100    0.0100    0.0100    0.0100    0.0100
    0.0100    0.0100    0.0100    0.0100    0.0100    0.0100    0.0100    0.0100
    0.0100    0.0100    0.0100    0.0100    0.0100    0.0100    0.0100    0.0100
    0.0100    0.0100    0.0100    0.0100    0.0100    0.0100    0.0100    0.0100
    0.0100    0.0100    0.0100    0.0100    0.0100    0.0100    0.0100    0.0100
    0.0100    0.0100    0.0100    0.0100    0.0100    0.0100    0.0100    0.0100
    0.0100    0.0100    0.0100    0.0100    0.0100    0.0100    0.0100    0.0100
    0.0100    0.0100    0.0100    0.0100    0.0100    0.0100    0.0100    0.0100
    0.0100    0.0100    0.0100    0.0100    0.0100    0.0100    0.0100    0.0100
    0.0100    0.0100    0.0100    0.0100    0.0100    0.0100    0.0100    0.0100
    0.0100    0.0100    0.0100    0.0100    0.0100    0.0100    0.0100    0.0100
    0.0100    0.0100    0.0100    0.0100    0.0100    0.0100    0.0100    0.0100
    0.0100    0.0100    0.0100    0.0100    0.0100    0.0100    0.0100    0.0100
    0.0100    0.0100    0.0100    0.0100    0.0100    0.0100    0.0100    0.0100
    0.0100    0.0100    0.0100    0.0100    0.0100    0.0100    0.0100    0.0100
    0.0100    0.0100    0.0100    0.0100    0.0100    0.0100    0.0100    0.0100
    0.0100    0.0100    0.0100    0.0100    0.0100    0.0100    0.0100    0.0100
    0.0100    0.0100    0.0100    0.0100    0.0100    0.0100    0.0100    0.0100
    0.0100    0.0100    0.0100    0.0100    0.0100    0.0100    0.0100    0.0100
    0.0100    0.0100    0.0100    0.0100    0.0100    0.0100    0.0100    0.0100
    0.0100    0.0100    0.0100    0.0100    0.0100    0.0100    0.0100    0.0100
    0.0100    0.0100    0.0100    0.0100    0.0100    0.0100    0.0100    0.0100
    0.0100    0.0100    0.0100    0.0100    0.0100    0.0100    0.0100    0.0100
    0.0100    0.0100    0.0100    0.0100    0.0100    0.0100    0.0100    0.0100
    0.0100    0.0100    0.0100    0.0100    0.0100    0.0100    0.0100    0.0100
    0.0100    0.0100    0.0100    0.0100    0.0100    0.0100    0.0100    0.0100
    0.0100    0.0100    0.0100    0.0100    0.0100    0.0100    0.0100    0.0100
    0.0100    0.0100    0.0100    0.0100    0.0100    0.0100    0.0100    0.0100
    0.0100    0.0100    0.0100    0.0100    0.0100    0.0100    0.0100    0.0100
    0.0100    0.0100    0.0100    0.0100    0.0100    0.0100    0.0100    0.0100
    0.0100    0.0100    0.0100    0.0100    0.0100    0.0100    0.0100    0.0100
    0.0100    0.0100    0.0100    0.0100    0.0100    0.0100    0.0100    0.0100
    0.0100    0.0100    0.0100    0.0100    0.0100    0.0100    0.0100    0.0100
    0.0100    0.0100    0.0100    0.0100    0.0100    0.0100    0.0100    0.0100
    0.0100    0.0100    0.0100    0.0100    0.0100    0.0100    0.0100    0.0100
    0.0100    0.0100    0.0100    0.0100    0.0100    0.0100    0.0100    0.0100
    0.0100    0.0100    0.0100    0.0100    0.0100    0.0100    0.0100    0.0100
    0.0100    0.0100    0.0100    0.0100    0.0100    0.0100    0.0100    0.0100
    0.0100    0.0100    0.0100    0.0100    0.0100    0.0100    0.0100    0.0100
    0.0100    0.0100    0.0100    0.0100    0.0100    0.0100    0.0100    0.0100
    0.0100    0.0100    0.0100    0.0100    0.0100    0.0100    0.0100    0.0100
    0.0100    0.0100    0.0100    0.0100    0.0100    0.0100    0.0100    0.0100
    0.0100    0.0100    0.0100    0.0100    0.0100    0.0100    0.0100    0.0100
    0.0100    0.0100    0.0100    0.0100    0.0100    0.0100    0.0100    0.0100
    0.0100    0.0100    0.0100    0.0100    0.0100    0.0100    0.0100    0.0100
    0.0100    0.0100    0.0100    0.0100    0.0100    0.0100    0.0100    0.0100
    0.0100    0.0100    0.0100    0.0100    0.0100    0.0100    0.0100    0.0100
    0.0100    0.0100    0.0100    0.0100    0.0100    0.0100    0.0100    0.0100
    0.0100    0.0100    0.0100    0.0100    0.0100    0.0100    0.0100    0.0100
    0.0100    0.0100    0.0100    0.0100    0.0100    0.0100    0.0100    0.0100
    0.0100    0.0100    0.0100    0.0100    0.0100    0.0100    0.0100    0.0100
    0.0100    0.0100    0.0100    0.0100    0.0100    0.0100    0.0100    0.0100
    0.0100    0.0100    0.0100    0.0100    0.0100    0.0100    0.0100    0.0100
    0.0100    0.0100    0.0100    0.0100    0.0100    0.0100    0.0100    0.0100
    0.0100    0.0100    0.0100    0.0100
   </PP_RAB>
 </PP_MESH>
  <PP_LOCAL type="real"  size=" 732" columns="4">
   -9.6010893980E+00   -9.5998561549E+00   -9.5961573547E+00   -9.5899967258E+00
   -9.5813803204E+00   -9.5703166015E+00   -9.5568164323E+00   -9.5408930632E+00
   -9.5225621160E+00   -9.5018415645E+00   -9.4787517134E+00   -9.4533151730E+00
   -9.4255568327E+00   -9.3955038303E+00   -9.3631855193E+00   -9.3286334341E+00
   -9.2918812510E+00   -9.2529647485E+00   -9.2119217635E+00   -9.1687921463E+00
   -9.1236177120E+00   -9.0764421908E+00   -9.0273111749E+00   -8.9762720637E+00
   -8.9233740071E+00   -8.8686678459E+00   -8.8122060510E+00   -8.7540426597E+00
   -8.6942332110E+00   -8.6328346785E+00   -8.5699054015E+00   -8.5055050146E+00
   -8.4396943750E+00   -8.3725354894E+00   -8.3040914378E+00   -8.2344262970E+00
   -8.1636050621E+00   -8.0916935665E+00   -8.0187584006E+00   -7.9448668298E+00
   -7.8700867101E+00   -7.7944864034E+00   -7.7181346912E+00   -7.6411006875E+00
   -7.5634537498E+00   -7.4852633899E+00   -7.4065991834E+00   -7.3275306776E+00
   -7.2481272992E+00   -7.1684582606E+00   -7.0885924652E+00   -7.0085984118E+00
   -6.9285440983E+00   -6.8484969238E+00   -6.7685235906E+00   -6.6886900046E+00
   -6.6090611753E+00   -6.5297011142E+00   -6.4506727330E+00   -6.3720377401E+00
   -6.2938565370E+00   -6.2161881127E+00   -6.1390899380E+00   -6.0626178584E+00
   -5.9868259858E+00   -5.9117665893E+00   -5.8374899851E+00   -5.7640444253E+00
   -5.6914759848E+00   -5.6198284485E+00   -5.5491431956E+00   -5.4794590840E+00
   -5.4108123332E+00   -5.3432364049E+00   -5.2767618840E+00   -5.2114163567E+00
   -5.1472244339E+00   -5.0842110314E+00   -5.0222904456E+00   -4.9616237237E+00
   -4.9021757239E+00   -4.8439535366E+00   -4.7869602840E+00   -4.7311950660E+00
   -4.6766528251E+00   -4.6233242100E+00   -4.5711954374E+00   -4.5202481513E+00
   -4.4704592819E+00   -4.4218009020E+00   -4.3742400966E+00   -4.3277401639E+00
   -4.2822646272E+00   -4.2377785459E+00   -4.1942484527E+00   -4.1516422805E+00
   -4.1099292925E+00   -4.0690800182E+00   -4.0290661922E+00   -3.9898606977E+00
   -3.9514375128E+00   -3.9137716611E+00   -3.8768391639E+00   -3.8406169965E+00
   -3.8050830460E+00   -3.7702160721E+00   -3.7359956700E+00   -3.7024022350E+00
   -3.6694169293E+00   -3.6370216500E+00   -3.6051989999E+00   -3.5739322581E+00
   -3.5432053532E+00   -3.5130028373E+00   -3.4833098615E+00   -3.4541121517E+00
   -3.4253959864E+00   -3.3971481748E+00   -3.3693560360E+00   -3.3420073788E+00
   -3.3150904828E+00   -3.2885940794E+00   -3.2625073342E+00   -3.2368198297E+00
   -3.2115215487E+00   -3.1866028578E+00   -3.1620544923E+00   -3.1378675411E+00
   -3.1140334317E+00   -3.0905439164E+00   -3.0673910588E+00   -3.0445672201E+00
   -3.0220650466E+00   -2.9998774572E+00   -2.9779976312E+00   -2.9564189969E+00
   -2.9351352202E+00   -2.9141401938E+00   -2.8934280262E+00   -2.8729930322E+00
   -2.8528297225E+00   -2.8329327946E+00   -2.8132971232E+00   -2.7939177518E+00
   -2.7747898841E+00   -2.7559088756E+00   -2.7372702261E+00   -2.7188695722E+00
   -2.7007026799E+00   -2.6827654378E+00   -2.6650538509E+00   -2.6475640338E+00
   -2.6302922052E+00   -2.6132346824E+00   -2.5963878754E+00   -2.5797482824E+00
   -2.5633124850E+00   -2.5470771435E+00   -2.5310389930E+00   -2.5151948392E+00
   -2.4995415550E+00   -2.4840760770E+00   -2.4687954024E+00   -2.4536965859E+00
   -2.4387767373E+00   -2.4240330188E+00   -2.4094626431E+00   -2.3950628708E+00
   -2.3808310091E+00   -2.3667644097E+00   -2.3528604677E+00   -2.3391166199E+00
   -2.3255303439E+00   -2.3120991569E+00   -2.2988206150E+00   -2.2856923121E+00
   -2.2727118796E+00   -2.2598769855E+00   -2.2471853342E+00   -2.2346346661E+00
   -2.2222227569E+00   -2.2099474180E+00   -2.1978064957E+00   -2.1857978714E+00
   -2.1739194614E+00   -2.1621692165E+00   -2.1505451226E+00   -2.1390451998E+00
   -2.1276675029E+00   -2.1164101213E+00   -2.1052711785E+00   -2.0942488323E+00
   -2.0833412747E+00   -2.0725467314E+00   -2.0618634618E+00   -2.0512897589E+00
   -2.0408239487E+00   -2.0304643897E+00   -2.0202094731E+00   -2.0100576215E+00
   -2.0000072892E+00   -1.9900569608E+00   -1.9802051512E+00   -1.9704504044E+00
   -1.9607912930E+00   -1.9512264175E+00   -1.9417544054E+00   -1.9323739109E+00
   -1.9230836141E+00   -1.9138822202E+00   -1.9047684591E+00   -1.8957410850E+00
   -1.8867988752E+00   -1.8779406304E+00   -1.8691651733E+00   -1.8604713489E+00
   -1.8518580234E+00   -1.8433240837E+00   -1.8348684376E+00   -1.8264900124E+00
   -1.8181877550E+00   -1.8099606317E+00   -1.8018076270E+00   -1.7937277437E+00
   -1.7857200027E+00   -1.7777834419E+00   -1.7699171166E+00   -1.7621200984E+00
   -1.7543914754E+00   -1.7467303517E+00   -1.7391358468E+00   -1.7316070955E+00
   -1.7241432474E+00   -1.7167434671E+00   -1.7094069330E+00   -1.7021328378E+00
   -1.6949203878E+00   -1.6877688026E+00   -1.6806773150E+00   -1.6736451706E+00
   -1.6666716277E+00   -1.6597559567E+00   -1.6528974403E+00   -1.6460953729E+00
   -1.6393490603E+00   -1.6326578198E+00   -1.6260209799E+00   -1.6194378798E+00
   -1.6129078694E+00   -1.6064303091E+00   -1.6000045695E+00   -1.5936300312E+00
   -1.5873060846E+00   -1.5810321299E+00   -1.5748075766E+00   -1.5686318435E+00
   -1.5625043584E+00   -1.5564245583E+00   -1.5503918885E+00   -1.5444058032E+00
   -1.5384657648E+00   -1.5325712442E+00   -1.5267217200E+00   -1.5209166790E+00
   -1.5151556158E+00   -1.5094380324E+00   -1.5037634385E+00   -1.4981313510E+00
   -1.4925412942E+00   -1.4869927993E+00   -1.4814854044E+00   -1.4760186546E+00
   -1.4705921016E+00   -1.4652053037E+00   -1.4598578256E+00   -1.4545492384E+00
   -1.4492791193E+00   -1.4440470517E+00   -1.4388526249E+00   -1.4336954343E+00
   -1.4285750809E+00   -1.4234911713E+00   -1.4184433179E+00   -1.4134311385E+00
   -1.4084542562E+00   -1.4035122995E+00   -1.3986049020E+00   -1.3937317025E+00
   -1.3888923447E+00   -1.3840864774E+00   -1.3793137540E+00   -1.3745738329E+00
   -1.3698663771E+00   -1.3651910542E+00   -1.3605475363E+00   -1.3559354999E+00
   -1.3513546260E+00   -1.3468045998E+00   -1.3422851107E+00   -1.3377958524E+00
   -1.3333365225E+00   -1.3289068228E+00   -1.3245064589E+00   -1.3201351404E+00
   -1.3157925806E+00   -1.3114784966E+00   -1.3071926094E+00   -1.3029346432E+00
   -1.2987043263E+00   -1.2945013901E+00   -1.2903255696E+00   -1.2861766034E+00
   -1.2820542331E+00   -1.2779582039E+00   -1.2738882641E+00   -1.2698441652E+00
   -1.2658256620E+00   -1.2618325121E+00   -1.2578644763E+00   -1.2539213186E+00
   -1.2500028057E+00   -1.2461087072E+00   -1.2422387957E+00   -1.2383928466E+00
   -1.2345706379E+00   -1.2307719505E+00   -1.2269965680E+00   -1.2232442765E+00
   -1.2195148649E+00   -1.2158081245E+00   -1.2121238493E+00   -1.2084618355E+00
   -1.2048218821E+00   -1.2012037904E+00   -1.1976073638E+00   -1.1940324085E+00
   -1.1904787327E+00   -1.1869461471E+00   -1.1834344643E+00   -1.1799434994E+00
   -1.1764730697E+00   -1.1730229943E+00   -1.1695930949E+00   -1.1661831950E+00
   -1.1627931200E+00   -1.1594226977E+00   -1.1560717577E+00   -1.1527401314E+00
   -1.1494276524E+00   -1.1461341561E+00   -1.1428594799E+00   -1.1396034627E+00
   -1.1363659457E+00   -1.1331467716E+00   -1.1299457849E+00   -1.1267628320E+00
   -1.1235977609E+00   -1.1204504212E+00   -1.1173206645E+00   -1.1142083438E+00
   -1.1111133137E+00   -1.1080354307E+00   -1.1049745526E+00   -1.1019305388E+00
   -1.0989032503E+00   -1.0958925498E+00   -1.0928983012E+00   -1.0899203701E+00
   -1.0869586234E+00   -1.0840129295E+00   -1.0810831583E+00   -1.0781691811E+00
   -1.0752708704E+00   -1.0723881002E+00   -1.0695207460E+00   -1.0666686843E+00
   -1.0638317932E+00   -1.0610099519E+00   -1.0582030410E+00   -1.0554109423E+00
   -1.0526335389E+00   -1.0498707150E+00   -1.0471223562E+00   -1.0443883492E+00
   -1.0416685818E+00   -1.0389629430E+00   -1.0362713232E+00   -1.0335936135E+00
   -1.0309297064E+00   -1.0282794956E+00   -1.0256428756E+00   -1.0230197421E+00
   -1.0204099920E+00   -1.0178135231E+00   -1.0152302343E+00   -1.0126600253E+00
   -1.0101027973E+00   -1.0075584520E+00   -1.0050268924E+00   -1.0025080224E+00
   -1.0000017466E+00   -9.9750797108E-01   -9.9502660236E-01   -9.9255754814E-01
   -9.9010071697E-01   -9.8765601831E-01   -9.8522336251E-01   -9.8280266081E-01
   -9.8039382530E-01   -9.7799676895E-01   -9.7561140556E-01   -9.7323764980E-01
   -9.7087541713E-01   -9.6852462385E-01   -9.6618518707E-01   -9.6385702470E-01
   -9.6154005543E-01   -9.5923419872E-01   -9.5693937484E-01   -9.5465550478E-01
   -9.5238251030E-01   -9.5012031390E-01   -9.4786883882E-01   -9.4562800903E-01
   -9.4339774919E-01   -9.4117798471E-01   -9.3896864166E-01   -9.3676964684E-01
   -9.3458092770E-01   -9.3240241239E-01   -9.3023402972E-01   -9.2807570915E-01
   -9.2592738083E-01   -9.2378897550E-01   -9.2166042459E-01   -9.1954166013E-01
   -9.1743261478E-01   -9.1533322182E-01   -9.1324341514E-01   -9.1116312922E-01
   -9.0909229916E-01   -9.0703086063E-01   -9.0497874989E-01   -9.0293590376E-01
   -9.0090225965E-01   -8.9887775553E-01   -8.9686232990E-01   -8.9485592185E-01
   -8.9285847099E-01   -8.9086991746E-01   -8.8889020197E-01   -8.8691926570E-01
   -8.8495705040E-01   -8.8300349832E-01   -8.8105855220E-01   -8.7912215530E-01
   -8.7719425137E-01   -8.7527478468E-01   -8.7336369994E-01   -8.7146094238E-01
   -8.6956645768E-01   -8.6768019202E-01   -8.6580209202E-01   -8.6393210477E-01
   -8.6207017781E-01   -8.6021625916E-01   -8.5837029724E-01   -8.5653224095E-01
   -8.5470203962E-01   -8.5287964298E-01   -8.5106500124E-01   -8.4925806499E-01
   -8.4745878525E-01   -8.4566711348E-01   -8.4388300151E-01   -8.4210640159E-01
   -8.4033726640E-01   -8.3857554896E-01   -8.3682120274E-01   -8.3507418156E-01
   -8.3333443965E-01   -8.3160193160E-01   -8.2987661239E-01   -8.2815843736E-01
   -8.2644736225E-01   -8.2474334311E-01   -8.2304633642E-01   -8.2135629895E-01
   -8.1967318788E-01   -8.1799696071E-01   -8.1632757529E-01   -8.1466498981E-01
   -8.1300916283E-01   -8.1136005320E-01   -8.0971762014E-01   -8.0808182318E-01
   -8.0645262218E-01   -8.0482997734E-01   -8.0321384914E-01   -8.0160419843E-01
   -8.0000098632E-01   -7.9840417427E-01   -7.9681372403E-01   -7.9522959766E-01
   -7.9365175751E-01   -7.9208016624E-01   -7.9051478680E-01   -7.8895558244E-01
   -7.8740251669E-01   -7.8585555336E-01   -7.8431465656E-01   -7.8277979068E-01
   -7.8125092038E-01   -7.7972801060E-01   -7.7821102654E-01   -7.7669993369E-01
   -7.7519469780E-01   -7.7369528487E-01   -7.7220166120E-01   -7.7071379331E-01
   -7.6923164800E-01   -7.6775519231E-01   -7.6628439355E-01   -7.6481921926E-01
   -7.6335963725E-01   -7.6190561557E-01   -7.6045712249E-01   -7.5901412654E-01
   -7.5757659650E-01   -7.5614450137E-01   -7.5471781037E-01   -7.5329649298E-01
   -7.5188051890E-01   -7.5046985805E-01   -7.4906448058E-01   -7.4766435687E-01
   -7.4626945751E-01   -7.4487975331E-01   -7.4349521531E-01   -7.4211581475E-01
   -7.4074152308E-01   -7.3937231199E-01   -7.3800815334E-01   -7.3664901923E-01
   -7.3529488194E-01   -7.3394571397E-01   -7.3260148802E-01   -7.3126217697E-01
   -7.2992775393E-01   -7.2859819219E-01   -7.2727346522E-01   -7.2595354671E-01
   -7.2463841052E-01   -7.2332803070E-01   -7.2202238151E-01   -7.2072143737E-01
   -7.1942517289E-01   -7.1813356287E-01   -7.1684658228E-01   -7.1556420628E-01
   -7.1428641021E-01   -7.1301316956E-01   -7.1174446003E-01   -7.1048025747E-01
   -7.0922053790E-01   -7.0796527753E-01   -7.0671445271E-01   -7.0546803998E-01
   -7.0422601604E-01   -7.0298835774E-01   -7.0175504211E-01   -7.0052604633E-01
   -6.9930134775E-01   -6.9808092387E-01   -6.9686475234E-01   -6.9565281098E-01
   -6.9444507776E-01   -6.9324153079E-01   -6.9204214836E-01   -6.9084690888E-01
   -6.8965579092E-01   -6.8846877320E-01   -6.8728583459E-01   -6.8610695410E-01
   -6.8493211087E-01   -6.8376128421E-01   -6.8259445355E-01   -6.8143159848E-01
   -6.8027269870E-01   -6.7911773407E-01   -6.7796668459E-01   -6.7681953037E-01
   -6.7567625168E-01   -6.7453682891E-01   -6.7340124259E-01   -6.7226947337E-01
   -6.7114150205E-01   -6.7001730953E-01   -6.6889687686E-01   -6.6778018521E-01
   -6.6666721587E-01   -6.6555795026E-01   -6.6445236993E-01   -6.6335045654E-01
   -6.6225219187E-01   -6.6115755784E-01   -6.6006653647E-01   -6.5897910991E-01
   -6.5789526041E-01   -6.5681497037E-01   -6.5573822226E-01   -6.5466499870E-01
   -6.5359528242E-01   -6.5252905625E-01   -6.5146630313E-01   -6.5040700613E-01
   -6.4935114842E-01   -6.4829871326E-01   -6.4724968405E-01   -6.4620404428E-01
   -6.4516177754E-01   -6.4412286755E-01   -6.4308729812E-01   -6.4205505315E-01
   -6.4102611666E-01   -6.4000047278E-01   -6.3897810572E-01   -6.3795899981E-01
   -6.3694313947E-01   -6.3593050922E-01   -6.3492109367E-01   -6.3391487754E-01
   -6.3291184565E-01   -6.3191198290E-01   -6.3091527430E-01   -6.2992170494E-01