<UPF version="2.0.1">
  <PP_INFO>

 This pseudopotential file has been produced using the code
 ONCVPSP  (Optimized Norm-Conservinng Vanderbilt PSeudopotential)
 fully-relativistic version 4.0.1 06/04/2019 by D. R. Hamann
 The code is available through a link at URL www.mat-simresearch.com.
 Documentation with the package provides a full discription of the
 input data below.


 While it is not required under the terms of the GNU GPL, it is
 suggested that you cite D. R. Hamann, Phys. Rev. B 88, 085117 (2013)
 in any publication using these pseudopotentials.

    <PP_INPUTFILE>
# ATOM AND REFERENCE CONFIGURATION
# atsym  z   nc   nv     iexc    psfile
  He  2.00    0    1       3      upf
#
#   n    l    f        energy (Ha)
    1    0    2.00
#
# PSEUDOPOTENTIAL AND OPTIMIZATION
# lmax
    0
#
#   l,   rc,     ep,   ncon, nbas, qcut
    0   1.98530   0.00000    5    8   7.17231
#
# LOCAL POTENTIAL
# lloc, lpopt,  rc(5),   dvloc0
    4    5   0.89431      0.00000
#
# VANDERBILT-KLEINMAN-BYLANDER PROJECTORs
# l, nproj, debl
    0    2   1.34022
#
# MODEL CORE CHARGE
# icmod, fcfact, rcfact
    0   0.00000   0.00000
#
# LOG DERIVATIVE ANALYSIS
# epsh1, epsh2, depsh
   -5.00    3.00    0.02
#
# OUTPUT GRID
# rlmax, drl
    6.00    0.01
#
# TEST CONFIGURATIONS
# ncnf
    0
# nvcnf
#   n    l    f
    </PP_INPUTFILE>
  </PP_INFO>
  <!--                               -->
  <!-- END OF HUMAN READABLE SECTION -->
  <!--                               -->
    <PP_HEADER
       generated="Generated using ONCVPSP code by D. R. Hamann"
       author="anonymous"
       date="220414"
       comment=""
       element="He"
       pseudo_type="NC"
       relativistic="full"
       is_ultrasoft="F"
       is_paw="F"
       is_coulomb="F"
       has_so="T"
       has_wfc="F"
       has_gipaw="F"
       core_correction="F"
       functional="PZ"
       z_valence="    2.00"
       total_psenergy="  -5.48313002831E+00"
       rho_cutoff="   7.31000000000E+00"
       l_max="0"
       l_local="-1"
       mesh_size="   732"
       number_of_wfc="1"
       number_of_proj="2"/>
 <PP_MESH>
   <PP_R type="real"  size=" 732" columns="8">
    0.0000    0.0100    0.0200    0.0300    0.0400    0.0500    0.0600    0.0700
    0.0800    0.0900    0.1000    0.1100    0.1200    0.1300    0.1400    0.1500
    0.1600    0.1700    0.1800    0.1900    0.2000    0.2100    0.2200    0.2300
    0.2400    0.2500    0.2600    0.2700    0.2800    0.2900    0.3000    0.3100
    0.3200    0.3300    0.3400    0.3500    0.3600    0.3700    0.3800    0.3900
    0.4000    0.4100    0.4200    0.4300    0.4400    0.4500    0.4600    0.4700
    0.4800    0.4900    0.5000    0.5100    0.5200    0.5300    0.5400    0.5500
    0.5600    0.5700    0.5800    0.5900    0.6000    0.6100    0.6200    0.6300
    0.6400    0.6500    0.6600    0.6700    0.6800    0.6900    0.7000    0.7100
    0.7200    0.7300    0.7400    0.7500    0.7600    0.7700    0.7800    0.7900
    0.8000    0.8100    0.8200    0.8300    0.8400    0.8500    0.8600    0.8700
    0.8800    0.8900    0.9000    0.9100    0.9200    0.9300    0.9400    0.9500
    0.9600    0.9700    0.9800    0.9900    1.0000    1.0100    1.0200    1.0300
    1.0400    1.0500    1.0600    1.0700    1.0800    1.0900    1.1000    1.1100
    1.1200    1.1300    1.1400    1.1500    1.1600    1.1700    1.1800    1.1900
    1.2000    1.2100    1.2200    1.2300    1.2400    1.2500    1.2600    1.2700
    1.2800    1.2900    1.3000    1.3100    1.3200    1.3300    1.3400    1.3500
    1.3600    1.3700    1.3800    1.3900    1.4000    1.4100    1.4200    1.4300
    1.4400    1.4500    1.4600    1.4700    1.4800    1.4900    1.5000    1.5100
    1.5200    1.5300    1.5400    1.5500    1.5600    1.5700    1.5800    1.5900
    1.6000    1.6100    1.6200    1.6300    1.6400    1.6500    1.6600    1.6700
    1.6800    1.6900    1.7000    1.7100    1.7200    1.7300    1.7400    1.7500
    1.7600    1.7700    1.7800    1.7900    1.8000    1.8100    1.8200    1.8300
    1.8400    1.8500    1.8600    1.8700    1.8800    1.8900    1.9000    1.9100
    1.9200    1.9300    1.9400    1.9500    1.9600    1.9700    1.9800    1.9900
    2.0000    2.0100    2.0200    2.0300    2.0400    2.0500    2.0600    2.0700
    2.0800    2.0900    2.1000    2.1100    2.1200    2.1300    2.1400    2.1500
    2.1600    2.1700    2.1800    2.1900    2.2000    2.2100    2.2200    2.2300
    2.2400    2.2500    2.2600    2.2700    2.2800    2.2900    2.3000    2.3100
    2.3200    2.3300    2.3400    2.3500    2.3600    2.3700    2.3800    2.3900
    2.4000    2.4100    2.4200    2.4300    2.4400    2.4500    2.4600    2.4700
    2.4800    2.4900    2.5000    2.5100    2.5200    2.5300    2.5400    2.5500
    2.5600    2.5700    2.5800    2.5900    2.6000    2.6100    2.6200    2.6300
    2.6400    2.6500    2.6600    2.6700    2.6800    2.6900    2.7000    2.7100
    2.7200    2.7300    2.7400    2.7500    2.7600    2.7700    2.7800    2.7900
    2.8000    2.8100    2.8200    2.8300    2.8400    2.8500    2.8600    2.8700
    2.8800    2.8900    2.9000    2.9100    2.9200    2.9300    2.9400    2.9500
    2.9600    2.9700    2.9800    2.9900    3.0000    3.0100    3.0200    3.0300
    3.0400    3.0500    3.0600    3.0700    3.0800    3.0900    3.1000    3.1100
    3.1200    3.1300    3.1400    3.1500    3.1600    3.1700    3.1800    3.1900
    3.2000    3.2100    3.2200    3.2300    3.2400    3.2500    3.2600    3.2700
    3.2800    3.2900    3.3000    3.3100    3.3200    3.3300    3.3400    3.3500
    3.3600    3.3700    3.3800    3.3900    3.4000    3.4100    3.4200    3.4300
    3.4400    3.4500    3.4600    3.4700    3.4800    3.4900    3.5000    3.5100
    3.5200    3.5300    3.5400    3.5500    3.5600    3.5700    3.5800    3.5900
    3.6000    3.6100    3.6200    3.6300    3.6400    3.6500    3.6600    3.6700
    3.6800    3.6900    3.7000    3.7100    3.7200    3.7300    3.7400    3.7500
    3.7600    3.7700    3.7800    3.7900    3.8000    3.8100    3.8200    3.8300
    3.8400    3.8500    3.8600    3.8700    3.8800    3.8900    3.9000    3.9100
    3.9200    3.9300    3.9400    3.9500    3.9600    3.9700    3.9800    3.9900
    4.0000    4.0100    4.0200    4.0300    4.0400    4.0500    4.0600    4.0700
    4.0800    4.0900    4.1000    4.1100    4.1200    4.1300    4.1400    4.1500
    4.1600    4.1700    4.1800    4.1900    4.2000    4.2100    4.2200    4.2300
    4.2400    4.2500    4.2600    4.2700    4.2800    4.2900    4.3000    4.3100
    4.3200    4.3300    4.3400    4.3500    4.3600    4.3700    4.3800    4.3900
    4.4000    4.4100    4.4200    4.4300    4.4400    4.4500    4.4600    4.4700
    4.4800    4.4900    4.5000    4.5100    4.5200    4.5300    4.5400    4.5500
    4.5600    4.5700    4.5800    4.5900    4.6000    4.6100    4.6200    4.6300
    4.6400    4.6500    4.6600    4.6700    4.6800    4.6900    4.7000    4.7100
    4.7200    4.7300    4.7400    4.7500    4.7600    4.7700    4.7800    4.7900
    4.8000    4.8100    4.8200    4.8300    4.8400    4.8500    4.8600    4.8700
    4.8800    4.8900    4.9000    4.9100    4.9200    4.9300    4.9400    4.9500
    4.9600    4.9700    4.9800    4.9900    5.0000    5.0100    5.0200    5.0300
    5.0400    5.0500    5.0600    5.0700    5.0800    5.0900    5.1000    5.1100
    5.1200    5.1300    5.1400    5.1500    5.1600    5.1700    5.1800    5.1900
    5.2000    5.2100    5.2200    5.2300    5.2400    5.2500    5.2600    5.2700
    5.2800    5.2900    5.3000    5.3100    5.3200    5.3300    5.3400    5.3500
    5.3600    5.3700    5.3800    5.3900    5.4000    5.4100    5.4200    5.4300
    5.4400    5.4500    5.4600    5.4700    5.4800    5.4900    5.5000    5.5100
    5.5200    5.5300    5.5400    5.5500    5.5600    5.5700    5.5800    5.5900
    5.6000    5.6100    5.6200    5.6300    5.6400    5.6500    5.6600    5.6700
    5.6800    5.6900    5.7000    5.7100    5.7200    5.7300    5.7400    5.7500
    5.7600    5.7700    5.7800    5.7900    5.8000    5.8100    5.8200    5.8300
    5.8400    5.8500    5.8600    5.8700    5.8800    5.8900    5.9000    5.9100
    5.9200    5.9300    5.9400    5.9500    5.9600    5.9700    5.9800    5.9900
    6.0000    6.0100    6.0200    6.0300    6.0400    6.0500    6.0600    6.0700
    6.0800    6.0900    6.1000    6.1100    6.1200    6.1300    6.1400    6.1500
    6.1600    6.1700    6.1800    6.1900    6.2000    6.2100    6.2200    6.2300
    6.2400    6.2500    6.2600    6.2700    6.2800    6.2900    6.3000    6.3100
    6.3200    6.3300    6.3400    6.3500    6.3600    6.3700    6.3800    6.3900
    6.4000    6.4100    6.4200    6.4300    6.4400    6.4500    6.4600    6.4700
    6.4800    6.4900    6.5000    6.5100    6.5200    6.5300    6.5400    6.5500
    6.5600    6.5700    6.5800    6.5900    6.6000    6.6100    6.6200    6.6300
    6.6400    6.6500    6.6600    6.6700    6.6800    6.6900    6.7000    6.7100
    6.7200    6.7300    6.7400    6.7500    6.7600    6.7700    6.7800    6.7900
    6.8000    6.8100    6.8200    6.8300    6.8400    6.8500    6.8600    6.8700
    6.8800    6.8900    6.9000    6.9100    6.9200    6.9300    6.9400    6.9500
    6.9600    6.9700    6.9800    6.9900    7.0000    7.0100    7.0200    7.0300
    7.0400    7.0500    7.0600    7.0700    7.0800    7.0900    7.1000    7.1100
    7.1200    7.1300    7.1400    7.1500    7.1600    7.1700    7.1800    7.1900
    7.2000    7.2100    7.2200    7.2300    7.2400    7.2500    7.2600    7.2700
    7.2800    7.2900    7.3000    7.3100
   </PP_R>
   <PP_RAB type="real"  size=" 732" columns="8">
    0.0100    0.0100    0.0100    0.0100    0.0100    0.0100    0.0100    0.0100
    0.0100    0.0100    0.0100    0.0100    0.0100    0.0100    0.0100    0.0100
    0.0100    0.0100    0.0100    0.0100    0.0100    0.0100    0.0100    0.0100
    0.0100    0.0100    0.0100    0.0100    0.0100    0.0100    0.0100    0.0100
    0.0100    0.0100    0.0100    0.0100    0.0100    0.0100    0.0100    0.0100
    0.0100    0.0100    0.0100    0.0100    0.0100    0.0100    0.0100    0.0100
    0.0100    0.0100    0.0100    0.0100    0.0100    0.0100    0.0100    0.0100
    0.0100    0.0100    0.0100    0.0100    0.0100    0.0100    0.0100    0.0100
    0.0100    0.0100    0.0100    0.0100    0.0100    0.0100    0.0100    0.0100
    0.0100    0.0100    0.0100    0.0100    0.0100    0.0100    0.0100    0.0100
    0.0100    0.0100    0.0100    0.0100    0.0100    0.0100    0.0100    0.0100
    0.0100    0.0100    0.0100    0.0100    0.0100    0.0100    0.0100    0.0100
    0.0100    0.0100    0.0100    0.0100    0.0100    0.0100    0.0100    0.0100
    0.0100    0.0100    0.0100    0.0100    0.0100    0.0100    0.0100    0.0100
    0.0100    0.0100    0.0100    0.0100    0.0100    0.0100    0.0100    0.0100
    0.0100    0.0100    0.0100    0.0100    0.0100    0.0100    0.0100    0.0100
    0.0100    0.0100    0.0100    0.0100    0.0100    0.0100    0.0100    0.0100
    0.0100    0.0100    0.0100    0.0100    0.0100    0.0100    0.0100    0.0100
    0.0100    0.0100    0.0100    0.0100    0.0100    0.0100    0.0100    0.0100
    0.0100    0.0100    0.0100    0.0100    0.0100    0.0100    0.0100    0.0100
    0.0100    0.0100    0.0100    0.0100    0.0100    0.0100    0.0100    0.0100
    0.0100    0.0100    0.0100    0.0100    0.0100    0.0100    0.0100    0.0100
    0.0100    0.0100    0.0100    0.0100    0.0100    0.0100    0.0100    0.0100
    0.0100    0.0100    0.0100    0.0100    0.0100    0.0100    0.0100    0.0100
    0.0100    0.0100    0.0100    0.0100    0.0100    0.0100    0.0100    0.0100
    0.0100    0.0100    0.0100    0.0100    0.0100    0.0100    0.0100    0.0100
    0.0100    0.0100    0.0100    0.0100    0.0100    0.0100    0.0100    0.0100
    0.0100    0.0100    0.0100    0.0100    0.0100    0.0100    0.0100    0.0100
    0.0100    0.0100    0.0100    0.0100    0.0100    0.0100    0.0100    0.0100
    0.0100    0.0100    0.0100    0.0100    0.0100    0.0100    0.0100    0.0100
    0.0100    0.0100    0.0100    0.0100    0.0100    0.0100    0.0100    0.0100
    0.0100    0.0100    0.0100    0.0100    0.0100    0.0100    0.0100    0.0100
    0.0100    0.0100    0.0100    0.0100    0.0100    0.0100    0.0100    0.0100
    0.0100    0.0100    0.0100    0.0100    0.0100    0.0100    0.0100    0.0100
    0.0100    0.0100    0.0100    0.0100    0.0100    0.0100    0.0100    0.0100
    0.0100    0.0100    0.0100    0.0100    0.0100    0.0100    0.0100    0.0100
    0.0100    0.0100    0.0100    0.0100    0.0100    0.0100    0.0100    0.0100
    0.0100    0.0100    0.0100    0.0100    0.0100    0.0100    0.0100    0.0100
    0.0100    0.0100    0.0100    0.0100    0.0100    0.0100    0.0100    0.0100
    0.0100    0.0100    0.0100    0.0100    0.0100    0.0100    0.0100    0.0100
    0.0100    0.0100    0.0100    0.0100    0.0100    0.0100    0.0100    0.0100
    0.0100    0.0100    0.0100    0.0100    0.0100    0.0100    0.0100    0.0100
    0.0100    0.0100    0.0100    0.0100    0.0100    0.0100    0.0100    0.0100
    0.0100    0.0100    0.0100    0.0100    0.0100    0.0100    0.0100    0.0100
    0.0100    0.0100    0.0100    0.0100    0.0100    0.0100    0.0100    0.0100
    0.0100    0.0100    0.0100    0.0100    0.0100    0.0100    0.0100    0.0100
    0.0100    0.0100    0.0100    0.0100    0.0100    0.0100    0.0100    0.0100
    0.0100    0.0100    0.0100    0.0100    0.0100    0.0100    0.0100    0.0100
    0.0100    0.0100    0.0100    0.0100    0.0100    0.0100    0.0100    0.0100
    0.0100    0.0100    0.0100    0.0100    0.0100    0.0100    0.0100    0.0100
    0.0100    0.0100    0.0100    0.0100    0.0100    0.0100    0.0100    0.0100
    0.0100    0.0100    0.0100    0.0100    0.0100    0.0100    0.0100    0.0100
    0.0100    0.0100    0.0100    0.0100    0.0100    0.0100    0.0100    0.0100
    0.0100    0.0100    0.0100    0.0100    0.0100    0.0100    0.0100    0.0100
    0.0100    0.0100    0.0100    0.0100    0.0100    0.0100    0.0100    0.0100
    0.0100    0.0100    0.0100    0.0100    0.0100    0.0100    0.0100    0.0100
    0.0100    0.0100    0.0100    0.0100    0.0100    0.0100    0.0100    0.0100
    0.0100    0.0100    0.0100    0.0100    0.0100    0.0100    0.0100    0.0100
    0.0100    0.0100    0.0100    0.0100    0.0100    0.0100    0.0100    0.0100
    0.0100    0.0100    0.0100    0.0100    0.0100    0.0100    0.0100    0.0100
    0.0100    0.0100    0.0100    0.0100    0.0100    0.0100    0.0100    0.0100
    0.0100    0.0100    0.0100    0.0100    0.0100    0.0100    0.0100    0.0100
    0.0100    0.0100    0.0100    0.0100    0.0100    0.0100    0.0100    0.0100
    0.0100    0.0100    0.0100    0.0100    0.0100    0.0100    0.0100    0.0100
    0.0100    0.0100    0.0100    0.0100    0.0100    0.0100    0.0100    0.0100
    0.0100    0.0100    0.0100    0.0100    0.0100    0.0100    0.0100    0.0100
    0.0100    0.0100    0.0100    0.0100    0.0100    0.0100    0.0100    0.0100
    0.0100    0.0100    0.0100    0.0100    0.0100    0.0100    0.0100    0.0100
    0.0100    0.0100    0.0100    0.0100    0.0100    0.0100    0.0100    0.0100
    0.0100    0.0100    0.0100    0.0100    0.0100    0.0100    0.0100    0.0100
    0.0100    0.0100    0.0100    0.0100    0.0100    0.0100    0.0100    0.0100
    0.0100    0.0100    0.0100    0.0100    0.0100    0.0100    0.0100    0.0100
    0.0100    0.0100    0.0100    0.0100    0.0100    0.0100    0.0100    0.0100
    0.0100    0.0100    0.0100    0.0100    0.0100    0.0100    0.0100    0.0100
    0.0100    0.0100    0.0100    0.0100    0.0100    0.0100    0.0100    0.0100
    0.0100    0.0100    0.0100    0.0100    0.0100    0.0100    0.0100    0.0100
    0.0100    0.0100    0.0100    0.0100    0.0100    0.0100    0.0100    0.0100
    0.0100    0.0100    0.0100    0.0100    0.0100    0.0100    0.0100    0.0100
    0.0100    0.0100    0.0100    0.0100    0.0100    0.0100    0.0100    0.0100
    0.0100    0.0100    0.0100    0.0100    0.0100    0.0100    0.0100    0.0100
    0.0100    0.0100    0.0100    0.0100    0.0100    0.0100    0.0100    0.0100
    0.0100    0.0100    0.0100    0.0100    0.0100    0.0100    0.0100    0.0100
    0.0100    0.0100    0.0100    0.0100    0.0100    0.0100    0.0100    0.0100
    0.0100    0.0100    0.0100    0.0100    0.0100    0.0100    0.0100    0.0100
    0.0100    0.0100    0.0100    0.0100    0.0100    0.0100    0.0100    0.0100
    0.0100    0.0100    0.0100    0.0100    0.0100    0.0100    0.0100    0.0100
    0.0100    0.0100    0.0100    0.0100    0.0100    0.0100    0.0100    0.0100
    0.0100    0.0100    0.0100    0.0100    0.0100    0.0100    0.0100    0.0100
    0.0100    0.0100    0.0100    0.0100    0.0100    0.0100    0.0100    0.0100
    0.0100    0.0100    0.0100    0.0100    0.0100    0.0100    0.0100    0.0100
    0.0100    0.0100    0.0100    0.0100    0.0100    0.0100    0.0100    0.0100
    0.0100    0.0100    0.0100    0.0100
   </PP_RAB>
 </PP_MESH>
  <PP_LOCAL type="real"  size=" 732" columns="4">
   -9.5984607088E+00   -9.5972283316E+00   -9.5935324087E+00   -9.5873765703E+00
   -9.5787668611E+00   -9.5677117336E+00   -9.5542220375E+00   -9.5383110069E+00
   -9.5199942441E+00   -9.4992897009E+00   -9.4762176568E+00   -9.4508006942E+00
   -9.4230636718E+00   -9.3930336940E+00   -9.3607400784E+00   -9.3262143205E+00
   -9.2894900554E+00   -9.2506030177E+00   -9.2095909984E+00   -9.1664937990E+00
   -9.1213531839E+00   -9.0742128302E+00   -9.0251182750E+00   -8.9741168606E+00
   -8.9212576776E+00   -8.8665915060E+00   -8.8101707538E+00   -8.7520493942E+00
   -8.6922829001E+00   -8.6309281778E+00   -8.5680434980E+00   -8.5036884252E+00
   -8.4379237460E+00   -8.3708113947E+00   -8.3024143787E+00   -8.2327967013E+00
   -8.1620232833E+00   -8.0901598833E+00   -8.0172730171E+00   -7.9434298744E+00
   -7.8686982362E+00   -7.7931463891E+00   -7.7168430397E+00   -7.6398572270E+00
   -7.5622582344E+00   -7.4841155003E+00   -7.4054985272E+00   -7.3264767909E+00
   -7.2471196472E+00   -7.1674962390E+00   -7.0876754018E+00   -7.0077255677E+00
   -6.9277146699E+00   -6.8477100448E+00   -6.7677783338E+00   -6.6879853844E+00
   -6.6083961499E+00   -6.5290745884E+00   -6.4500835608E+00   -6.3714847280E+00
   -6.2933384467E+00   -6.2157036648E+00   -6.1386378154E+00   -6.0621967098E+00
   -5.9864344300E+00   -5.9114032190E+00   -5.8371533716E+00   -5.7637331226E+00
   -5.6911885346E+00   -5.6195633850E+00   -5.5488990508E+00   -5.4792343930E+00
   -5.4106056396E+00   -5.3430462672E+00   -5.2765868810E+00   -5.2112550942E+00
   -5.1470755593E+00   -5.0840739972E+00   -5.0221619278E+00   -4.9615043452E+00
   -4.9020637599E+00   -4.8438478987E+00   -4.7868599614E+00   -4.7310991340E+00
   -4.6765604535E+00   -4.6232346719E+00   -4.5711081180E+00   -4.5201625580E+00
   -4.4703750533E+00   -4.4217178178E+00   -4.3741580854E+00   -4.3276592363E+00
   -4.2821847982E+00   -4.2376998315E+00   -4.1941708700E+00   -4.1515658468E+00
   -4.1098540261E+00   -4.0690059374E+00   -4.0289933156E+00   -3.9897890439E+00
   -3.9513671006E+00   -3.9137025088E+00   -3.8767712897E+00   -3.8405504179E+00
   -3.8050177801E+00   -3.7701521352E+00   -3.7359330775E+00   -3.7023410014E+00
   -3.6693570679E+00   -3.6369631732E+00   -3.6051419186E+00   -3.5738765819E+00
   -3.5431510903E+00   -3.5129499946E+00   -3.4832584439E+00   -3.4540621628E+00
   -3.4253474281E+00   -3.3971010472E+00   -3.3693103374E+00   -3.3419631060E+00
   -3.3150476306E+00   -3.2885526408E+00   -3.2624673006E+00   -3.2367811907E+00
   -3.2114842919E+00   -3.1865669693E+00   -3.1620199566E+00   -3.1378343408E+00
   -3.1140015479E+00   -3.0905133288E+00   -3.0673617454E+00   -3.0445391576E+00
   -3.0220382104E+00   -2.9998518212E+00   -2.9779731684E+00   -2.9563956791E+00
   -2.9351130181E+00   -2.9141190772E+00   -2.8934079641E+00   -2.8729739930E+00
   -2.8528116738E+00   -2.8329157035E+00   -2.8132809564E+00   -2.7939024756E+00
   -2.7747754646E+00   -2.7558952788E+00   -2.7372574180E+00   -2.7188575187E+00
   -2.7006913472E+00   -2.6827547923E+00   -2.6650438591E+00   -2.6475546630E+00
   -2.6302834229E+00   -2.6132264567E+00   -2.5963801751E+00   -2.5797410770E+00
   -2.5633057448E+00   -2.5470708395E+00   -2.5310330970E+00   -2.5151893242E+00
   -2.4995363947E+00   -2.4840712462E+00   -2.4687908769E+00   -2.4536923426E+00
   -2.4387727541E+00   -2.4240292748E+00   -2.4094591183E+00   -2.3950595464E+00
   -2.3808278674E+00   -2.3667614341E+00   -2.3528576427E+00   -2.3391139310E+00
   -2.3255277776E+00   -2.3120967009E+00   -2.2988182577E+00   -2.2856900431E+00
   -2.2727096893E+00   -2.2598748653E+00   -2.2471832762E+00   -2.2346326633E+00
   -2.2222208031E+00   -2.2099455076E+00   -2.1978046238E+00   -2.1857960338E+00
   -2.1739176542E+00   -2.1621674368E+00   -2.1505433675E+00   -2.1390434671E+00
   -2.1276657907E+00   -2.1164084280E+00   -2.1052695028E+00   -2.0942471733E+00
   -2.0833396314E+00   -2.0725451033E+00   -2.0618618484E+00   -2.0512881598E+00
   -2.0408223635E+00   -2.0304628183E+00   -2.0202079151E+00   -2.0100560769E+00
   -2.0000057577E+00   -1.9900554423E+00   -1.9802036455E+00   -1.9704489113E+00
   -1.9607898125E+00   -1.9512249492E+00   -1.9417529494E+00   -1.9323724669E+00
   -1.9230821820E+00   -1.9138807998E+00   -1.9047670503E+00   -1.8957396876E+00
   -1.8867974892E+00   -1.8779392556E+00   -1.8691638096E+00   -1.8604699961E+00
   -1.8518566814E+00   -1.8433227525E+00   -1.8348671169E+00   -1.8264887021E+00
   -1.8181864551E+00   -1.8099593420E+00   -1.8018063473E+00   -1.7937264741E+00
   -1.7857187429E+00   -1.7777821919E+00   -1.7699158763E+00   -1.7621188677E+00
   -1.7543902542E+00   -1.7467291398E+00   -1.7391346441E+00   -1.7316059020E+00
   -1.7241420631E+00   -1.7167422917E+00   -1.7094057665E+00   -1.7021316801E+00
   -1.6949192388E+00   -1.6877676622E+00   -1.6806761831E+00   -1.6736440472E+00
   -1.6666705127E+00   -1.6597548501E+00   -1.6528963419E+00   -1.6460942825E+00
   -1.6393479780E+00   -1.6326567455E+00   -1.6260199135E+00   -1.6194368213E+00
   -1.6129068186E+00   -1.6064292660E+00   -1.6000035340E+00   -1.5936290032E+00
   -1.5873050641E+00   -1.5810311168E+00   -1.5748065709E+00   -1.5686308450E+00
   -1.5625033672E+00   -1.5564235741E+00   -1.5503909114E+00   -1.5444048332E+00
   -1.5384648018E+00   -1.5325702880E+00   -1.5267207707E+00   -1.5209157365E+00
   -1.5151546800E+00   -1.5094371032E+00   -1.5037625159E+00   -1.4981304350E+00
   -1.4925403847E+00   -1.4869918962E+00   -1.4814845077E+00   -1.4760177642E+00
   -1.4705912175E+00   -1.4652044259E+00   -1.4598569540E+00   -1.4545483728E+00
   -1.4492782598E+00   -1.4440461982E+00   -1.4388517774E+00   -1.4336945927E+00
   -1.4285742452E+00   -1.4234903415E+00   -1.4184424939E+00   -1.4134303202E+00
   -1.4084534436E+00   -1.4035114925E+00   -1.3986041006E+00   -1.3937309067E+00
   -1.3888915544E+00   -1.3840856925E+00   -1.3793129746E+00   -1.3745730589E+00
   -1.3698656085E+00   -1.3651902909E+00   -1.3605467782E+00   -1.3559347471E+00
   -1.3513538783E+00   -1.3468038573E+00   -1.3422843733E+00   -1.3377951201E+00
   -1.3333357952E+00   -1.3289061005E+00   -1.3245057416E+00   -1.3201344280E+00
   -1.3157918731E+00   -1.3114777940E+00   -1.3071919115E+00   -1.3029339501E+00
   -1.2987036379E+00   -1.2945007064E+00   -1.2903248906E+00   -1.2861759290E+00
   -1.2820535633E+00   -1.2779575387E+00   -1.2738876034E+00   -1.2698435091E+00
   -1.2658250103E+00   -1.2618318648E+00   -1.2578638335E+00   -1.2539206802E+00
   -1.2500021716E+00   -1.2461080774E+00   -1.2422381702E+00   -1.2383922253E+00
   -1.2345700208E+00   -1.2307713376E+00   -1.2269959593E+00   -1.2232436719E+00
   -1.2195142644E+00   -1.2158075281E+00   -1.2121232569E+00   -1.2084612472E+00
   -1.2048212978E+00   -1.2012032100E+00   -1.1976067874E+00   -1.1940318360E+00
   -1.1904781641E+00   -1.1869455822E+00   -1.1834339033E+00   -1.1799429422E+00
   -1.1764725162E+00   -1.1730224447E+00   -1.1695925490E+00   -1.1661826527E+00
   -1.1627925814E+00   -1.1594221628E+00   -1.1560712263E+00   -1.1527396036E+00
   -1.1494271282E+00   -1.1461336355E+00   -1.1428589627E+00   -1.1396029491E+00
   -1.1363654355E+00   -1.1331462649E+00   -1.1299452816E+00   -1.1267623321E+00
   -1.1235972643E+00   -1.1204499280E+00   -1.1173201747E+00   -1.1142078572E+00
   -1.1111128305E+00   -1.1080349507E+00   -1.1049740758E+00   -1.1019300652E+00
   -1.0989027800E+00   -1.0958920827E+00   -1.0928978372E+00   -1.0899199092E+00
   -1.0869581656E+00   -1.0840124748E+00   -1.0810827067E+00   -1.0781687325E+00
   -1.0752704248E+00   -1.0723876577E+00   -1.0695203064E+00   -1.0666682477E+00
   -1.0638313595E+00   -1.0610095212E+00   -1.0582026132E+00   -1.0554105174E+00
   -1.0526331168E+00   -1.0498702958E+00   -1.0471219399E+00   -1.0443879356E+00
   -1.0416681710E+00   -1.0389625351E+00   -1.0362709179E+00   -1.0335932110E+00
   -1.0309293067E+00   -1.0282790985E+00   -1.0256424812E+00   -1.0230193504E+00
   -1.0204096030E+00   -1.0178131367E+00   -1.0152298504E+00   -1.0126596441E+00
   -1.0101024187E+00   -1.0075580760E+00   -1.0050265189E+00   -1.0025076513E+00
   -1.0000013781E+00   -9.9750760507E-01   -9.9502623883E-01   -9.9255718707E-01
   -9.9010035835E-01   -9.8765566212E-01   -9.8522300873E-01   -9.8280230942E-01
   -9.8039347629E-01   -9.7799642231E-01   -9.7561106127E-01   -9.7323730784E-01
   -9.7087507749E-01   -9.6852428651E-01   -9.6618485202E-01   -9.6385669192E-01
   -9.6153972491E-01   -9.5923387045E-01   -9.5693904879E-01   -9.5465518094E-01
   -9.5238218866E-01   -9.5011999444E-01   -9.4786852154E-01   -9.4562769389E-01
   -9.4339743620E-01   -9.4117767384E-01   -9.3896833291E-01   -9.3676934019E-01
   -9.3458062313E-01   -9.3240210989E-01   -9.3023372928E-01   -9.2807541076E-01
   -9.2592708446E-01   -9.2378868116E-01   -9.2166013225E-01   -9.1954136978E-01
   -9.1743232640E-01   -9.1533293541E-01   -9.1324313068E-01   -9.1116284671E-01
   -9.0909201857E-01   -9.0703058196E-01   -9.0497847311E-01   -9.0293562887E-01
   -9.0090198664E-01   -8.9887748438E-01   -8.9686206061E-01   -8.9485565439E-01
   -8.9285820536E-01   -8.9086965365E-01   -8.8888993996E-01   -8.8691900548E-01
   -8.8495679197E-01   -8.8300324165E-01   -8.8105829728E-01   -8.7912190213E-01
   -8.7719399994E-01   -8.7527453496E-01   -8.7336345194E-01   -8.7146069608E-01
   -8.6956621307E-01   -8.6767994908E-01   -8.6580185075E-01   -8.6393186515E-01
   -8.6206993984E-01   -8.6021602282E-01   -8.5837006253E-01   -8.5653200786E-01
   -8.5470180812E-01   -8.5287941308E-01   -8.5106477291E-01   -8.4925783823E-01
   -8.4745856006E-01   -8.4566688984E-01   -8.4388277940E-01   -8.4210618102E-01
   -8.4033704734E-01   -8.3857533142E-01   -8.3682098670E-01   -8.3507396701E-01
   -8.3333422658E-01   -8.3160172000E-01   -8.2987640225E-01   -8.2815822868E-01
   -8.2644715500E-01   -8.2474313730E-01   -8.2304613203E-01   -8.2135609598E-01
   -8.1967298631E-01   -8.1799676054E-01   -8.1632737650E-01   -8.1466479241E-01
   -8.1300896679E-01   -8.1135985852E-01   -8.0971742681E-01   -8.0808163119E-01
   -8.0645243153E-01   -8.0482978801E-01   -8.0321366113E-01   -8.0160401172E-01
   -8.0000080091E-01   -7.9840399016E-01   -7.9681354120E-01   -7.9522941610E-01
   -7.9365157721E-01   -7.9207998720E-01   -7.9051460901E-01   -7.8895540589E-01
   -7.8740234137E-01   -7.8585537927E-01   -7.8431448369E-01   -7.8277961902E-01
   -7.8125074992E-01   -7.7972784132E-01   -7.7821085845E-01   -7.7669976678E-01
   -7.7519453206E-01   -7.7369512030E-01   -7.7220149778E-01   -7.7071363104E-01
   -7.6923148686E-01   -7.6775503231E-01   -7.6628423467E-01   -7.6481906150E-01
   -7.6335948061E-01   -7.6190546002E-01   -7.6045696804E-01   -7.5901397319E-01
   -7.5757644423E-01   -7.5614435017E-01   -7.5471766024E-01   -7.5329634391E-01
   -7.5188037088E-01   -7.5046971108E-01   -7.4906433466E-01   -7.4766421198E-01
   -7.4626931365E-01   -7.4487961047E-01   -7.4349507348E-01   -7.4211567393E-01
   -7.4074138327E-01   -7.3937217317E-01   -7.3800801551E-01   -7.3664888238E-01
   -7.3529474607E-01   -7.3394557907E-01   -7.3260135408E-01   -7.3126204399E-01
   -7.2992762190E-01   -7.2859806110E-01   -7.2727333508E-01   -7.2595341750E-01
   -7.2463828223E-01   -7.2332790334E-01   -7.2202225506E-01   -7.2072131183E-01
   -7.1942504826E-01   -7.1813343913E-01   -7.1684645944E-01   -7.1556408433E-01
   -7.1428628914E-01   -7.1301304937E-01   -7.1174434071E-01   -7.1048013901E-01
   -7.0922042031E-01   -7.0796516079E-01   -7.0671433682E-01   -7.0546792493E-01
   -7.0422590183E-01   -7.0298824436E-01   -7.0175492956E-01   -7.0052593461E-01
   -6.9930123684E-01   -6.9808081377E-01   -6.9686464305E-01   -6.9565270249E-01
   -6.9444497007E-01   -6.9324142390E-01   -6.9204204225E-01   -6.9084680356E-01
   -6.8965568638E-01   -6.8846866943E-01   -6.8728573159E-01   -6.8610685186E-01
   -6.8493200940E-01   -6.8376118349E-01   -6.8259435359E-01   -6.8143149926E-01
   -6.8027260022E-01   -6.7911763633E-01   -6.7796658758E-01   -6.7681943409E-01
   -6.7567615612E-01   -6.7453673407E-01   -6.7340114847E-01   -6.7226937997E-01
   -6.7114140935E-01   -6.7001721753E-01   -6.6889678556E-01   -6.6778009460E-01
   -6.6666712596E-01   -6.6555786104E-01   -6.6445228139E-01   -6.6335036867E-01
   -6.6225210468E-01   -6.6115747133E-01   -6.6006645062E-01   -6.5897902472E-01
   -6.5789517589E-01   -6.5681488650E-01   -6.5573813904E-01   -6.5466491614E-01
   -6.5359520050E-01   -6.5252897497E-01   -6.5146622249E-01   -6.5040692613E-01
   -6.4935106904E-01   -6.4829863451E-01   -6.4724960592E-01   -6.4620396677E-01
   -6.4516170066E-01   -6.4412279128E-01   -6.4308722246E-01   -6.4205497810E-01
   -6.4102604222E-01   -6.4000039894E-01   -6.3897803248E-01   -6.3795892717E-01
   -6.3694306741E-01   -6.3593043775E-01   -6.3492102279E-01   -6.3391480724E-01
   -6.3291177593E-01   -6.3191191376E-01   -6.3091520573E-01   -6.2992163695E-01