<UPF version="2.0.1">
  <PP_INFO>

 This pseudopotential file has been produced using the code
 ONCVPSP  (Optimized Norm-Conservinng Vanderbilt PSeudopotential)
 fully-relativistic version 4.0.1 06/04/2019 by D. R. Hamann
 The code is available through a link at URL www.mat-simresearch.com.
 Documentation with the package provides a full discription of the
 input data below.


 While it is not required under the terms of the GNU GPL, it is
 suggested that you cite D. R. Hamann, Phys. Rev. B 88, 085117 (2013)
 in any publication using these pseudopotentials.

    <PP_INPUTFILE>
# ATOM AND REFERENCE CONFIGURATION
# atsym  z   nc   nv     iexc    psfile
  Ne 10.00    1    2       3      upf
#
#   n    l    f        energy (Ha)
    1    0    2.00
    2    0    2.00
    2    1    6.00
#
# PSEUDOPOTENTIAL AND OPTIMIZATION
# lmax
    1
#
#   l,   rc,     ep,   ncon, nbas, qcut
    0   2.61642   0.00000    5    8   7.96858
    1   2.63783   0.00000    5    8   6.60628
#
# LOCAL POTENTIAL
# lloc, lpopt,  rc(5),   dvloc0
    4    5   2.61477      0.00000
#
# VANDERBILT-KLEINMAN-BYLANDER PROJECTORs
# l, nproj, debl
    0    2   1.54861
    1    2   1.11000
#
# MODEL CORE CHARGE
# icmod, fcfact, rcfact
    0   0.00000   0.00000
#
# LOG DERIVATIVE ANALYSIS
# epsh1, epsh2, depsh
   -5.00    3.00    0.02
#
# OUTPUT GRID
# rlmax, drl
    6.00    0.01
#
# TEST CONFIGURATIONS
# ncnf
    0
# nvcnf
#   n    l    f
    </PP_INPUTFILE>
  </PP_INFO>
  <!--                               -->
  <!-- END OF HUMAN READABLE SECTION -->
  <!--                               -->
    <PP_HEADER
       generated="Generated using ONCVPSP code by D. R. Hamann"
       author="anonymous"
       date="220414"
       comment=""
       element="Ne"
       pseudo_type="NC"
       relativistic="full"
       is_ultrasoft="F"
       is_paw="F"
       is_coulomb="F"
       has_so="T"
       has_wfc="F"
       has_gipaw="F"
       core_correction="F"
       functional="PZ"
       z_valence="    8.00"
       total_psenergy="  -6.16989587322E+01"
       rho_cutoff="   7.49000000000E+00"
       l_max="1"
       l_local="-1"
       mesh_size="   750"
       number_of_wfc="3"
       number_of_proj="6"/>
 <PP_MESH>
   <PP_R type="real"  size=" 750" columns="8">
    0.0000    0.0100    0.0200    0.0300    0.0400    0.0500    0.0600    0.0700
    0.0800    0.0900    0.1000    0.1100    0.1200    0.1300    0.1400    0.1500
    0.1600    0.1700    0.1800    0.1900    0.2000    0.2100    0.2200    0.2300
    0.2400    0.2500    0.2600    0.2700    0.2800    0.2900    0.3000    0.3100
    0.3200    0.3300    0.3400    0.3500    0.3600    0.3700    0.3800    0.3900
    0.4000    0.4100    0.4200    0.4300    0.4400    0.4500    0.4600    0.4700
    0.4800    0.4900    0.5000    0.5100    0.5200    0.5300    0.5400    0.5500
    0.5600    0.5700    0.5800    0.5900    0.6000    0.6100    0.6200    0.6300
    0.6400    0.6500    0.6600    0.6700    0.6800    0.6900    0.7000    0.7100
    0.7200    0.7300    0.7400    0.7500    0.7600    0.7700    0.7800    0.7900
    0.8000    0.8100    0.8200    0.8300    0.8400    0.8500    0.8600    0.8700
    0.8800    0.8900    0.9000    0.9100    0.9200    0.9300    0.9400    0.9500
    0.9600    0.9700    0.9800    0.9900    1.0000    1.0100    1.0200    1.0300
    1.0400    1.0500    1.0600    1.0700    1.0800    1.0900    1.1000    1.1100
    1.1200    1.1300    1.1400    1.1500    1.1600    1.1700    1.1800    1.1900
    1.2000    1.2100    1.2200    1.2300    1.2400    1.2500    1.2600    1.2700
    1.2800    1.2900    1.3000    1.3100    1.3200    1.3300    1.3400    1.3500
    1.3600    1.3700    1.3800    1.3900    1.4000    1.4100    1.4200    1.4300
    1.4400    1.4500    1.4600    1.4700    1.4800    1.4900    1.5000    1.5100
    1.5200    1.5300    1.5400    1.5500    1.5600    1.5700    1.5800    1.5900
    1.6000    1.6100    1.6200    1.6300    1.6400    1.6500    1.6600    1.6700
    1.6800    1.6900    1.7000    1.7100    1.7200    1.7300    1.7400    1.7500
    1.7600    1.7700    1.7800    1.7900    1.8000    1.8100    1.8200    1.8300
    1.8400    1.8500    1.8600    1.8700    1.8800    1.8900    1.9000    1.9100
    1.9200    1.9300    1.9400    1.9500    1.9600    1.9700    1.9800    1.9900
    2.0000    2.0100    2.0200    2.0300    2.0400    2.0500    2.0600    2.0700
    2.0800    2.0900    2.1000    2.1100    2.1200    2.1300    2.1400    2.1500
    2.1600    2.1700    2.1800    2.1900    2.2000    2.2100    2.2200    2.2300
    2.2400    2.2500    2.2600    2.2700    2.2800    2.2900    2.3000    2.3100
    2.3200    2.3300    2.3400    2.3500    2.3600    2.3700    2.3800    2.3900
    2.4000    2.4100    2.4200    2.4300    2.4400    2.4500    2.4600    2.4700
    2.4800    2.4900    2.5000    2.5100    2.5200    2.5300    2.5400    2.5500
    2.5600    2.5700    2.5800    2.5900    2.6000    2.6100    2.6200    2.6300
    2.6400    2.6500    2.6600    2.6700    2.6800    2.6900    2.7000    2.7100
    2.7200    2.7300    2.7400    2.7500    2.7600    2.7700    2.7800    2.7900
    2.8000    2.8100    2.8200    2.8300    2.8400    2.8500    2.8600    2.8700
    2.8800    2.8900    2.9000    2.9100    2.9200    2.9300    2.9400    2.9500
    2.9600    2.9700    2.9800    2.9900    3.0000    3.0100    3.0200    3.0300
    3.0400    3.0500    3.0600    3.0700    3.0800    3.0900    3.1000    3.1100
    3.1200    3.1300    3.1400    3.1500    3.1600    3.1700    3.1800    3.1900
    3.2000    3.2100    3.2200    3.2300    3.2400    3.2500    3.2600    3.2700
    3.2800    3.2900    3.3000    3.3100    3.3200    3.3300    3.3400    3.3500
    3.3600    3.3700    3.3800    3.3900    3.4000    3.4100    3.4200    3.4300
    3.4400    3.4500    3.4600    3.4700    3.4800    3.4900    3.5000    3.5100
    3.5200    3.5300    3.5400    3.5500    3.5600    3.5700    3.5800    3.5900
    3.6000    3.6100    3.6200    3.6300    3.6400    3.6500    3.6600    3.6700
    3.6800    3.6900    3.7000    3.7100    3.7200    3.7300    3.7400    3.7500
    3.7600    3.7700    3.7800    3.7900    3.8000    3.8100    3.8200    3.8300
    3.8400    3.8500    3.8600    3.8700    3.8800    3.8900    3.9000    3.9100
    3.9200    3.9300    3.9400    3.9500    3.9600    3.9700    3.9800    3.9900
    4.0000    4.0100    4.0200    4.0300    4.0400    4.0500    4.0600    4.0700
    4.0800    4.0900    4.1000    4.1100    4.1200    4.1300    4.1400    4.1500
    4.1600    4.1700    4.1800    4.1900    4.2000    4.2100    4.2200    4.2300
    4.2400    4.2500    4.2600    4.2700    4.2800    4.2900    4.3000    4.3100
    4.3200    4.3300    4.3400    4.3500    4.3600    4.3700    4.3800    4.3900
    4.4000    4.4100    4.4200    4.4300    4.4400    4.4500    4.4600    4.4700
    4.4800    4.4900    4.5000    4.5100    4.5200    4.5300    4.5400    4.5500
    4.5600    4.5700    4.5800    4.5900    4.6000    4.6100    4.6200    4.6300
    4.6400    4.6500    4.6600    4.6700    4.6800    4.6900    4.7000    4.7100
    4.7200    4.7300    4.7400    4.7500    4.7600    4.7700    4.7800    4.7900
    4.8000    4.8100    4.8200    4.8300    4.8400    4.8500    4.8600    4.8700
    4.8800    4.8900    4.9000    4.9100    4.9200    4.9300    4.9400    4.9500
    4.9600    4.9700    4.9800    4.9900    5.0000    5.0100    5.0200    5.0300
    5.0400    5.0500    5.0600    5.0700    5.0800    5.0900    5.1000    5.1100
    5.1200    5.1300    5.1400    5.1500    5.1600    5.1700    5.1800    5.1900
    5.2000    5.2100    5.2200    5.2300    5.2400    5.2500    5.2600    5.2700
    5.2800    5.2900    5.3000    5.3100    5.3200    5.3300    5.3400    5.3500
    5.3600    5.3700    5.3800    5.3900    5.4000    5.4100    5.4200    5.4300
    5.4400    5.4500    5.4600    5.4700    5.4800    5.4900    5.5000    5.5100
    5.5200    5.5300    5.5400    5.5500    5.5600    5.5700    5.5800    5.5900
    5.6000    5.6100    5.6200    5.6300    5.6400    5.6500    5.6600    5.6700
    5.6800    5.6900    5.7000    5.7100    5.7200    5.7300    5.7400    5.7500
    5.7600    5.7700    5.7800    5.7900    5.8000    5.8100    5.8200    5.8300
    5.8400    5.8500    5.8600    5.8700    5.8800    5.8900    5.9000    5.9100
    5.9200    5.9300    5.9400    5.9500    5.9600    5.9700    5.9800    5.9900
    6.0000    6.0100    6.0200    6.0300    6.0400    6.0500    6.0600    6.0700
    6.0800    6.0900    6.1000    6.1100    6.1200    6.1300    6.1400    6.1500
    6.1600    6.1700    6.1800    6.1900    6.2000    6.2100    6.2200    6.2300
    6.2400    6.2500    6.2600    6.2700    6.2800    6.2900    6.3000    6.3100
    6.3200    6.3300    6.3400    6.3500    6.3600    6.3700    6.3800    6.3900
    6.4000    6.4100    6.4200    6.4300    6.4400    6.4500    6.4600    6.4700
    6.4800    6.4900    6.5000    6.5100    6.5200    6.5300    6.5400    6.5500
    6.5600    6.5700    6.5800    6.5900    6.6000    6.6100    6.6200    6.6300
    6.6400    6.6500    6.6600    6.6700    6.6800    6.6900    6.7000    6.7100
    6.7200    6.7300    6.7400    6.7500    6.7600    6.7700    6.7800    6.7900
    6.8000    6.8100    6.8200    6.8300    6.8400    6.8500    6.8600    6.8700
    6.8800    6.8900    6.9000    6.9100    6.9200    6.9300    6.9400    6.9500
    6.9600    6.9700    6.9800    6.9900    7.0000    7.0100    7.0200    7.0300
    7.0400    7.0500    7.0600    7.0700    7.0800    7.0900    7.1000    7.1100
    7.1200    7.1300    7.1400    7.1500    7.1600    7.1700    7.1800    7.1900
    7.2000    7.2100    7.2200    7.2300    7.2400    7.2500    7.2600    7.2700
    7.2800    7.2900    7.3000    7.3100    7.3200    7.3300    7.3400    7.3500
    7.3600    7.3700    7.3800    7.3900    7.4000    7.4100    7.4200    7.4300
    7.4400    7.4500    7.4600    7.4700    7.4800    7.4900
   </PP_R>
   <PP_RAB type="real"  size=" 750" columns="8">
    0.0100    0.0100    0.0100    0.0100    0.0100    0.0100    0.0100    0.0100
    0.0100    0.0100    0.0100    0.0100    0.0100    0.0100    0.0100    0.0100
    0.0100    0.0100    0.0100    0.0100    0.0100    0.0100    0.0100    0.0100
    0.0100    0.0100    0.0100    0.0100    0.0100    0.0100    0.0100    0.0100
    0.0100    0.0100    0.0100    0.0100    0.0100    0.0100    0.0100    0.0100
    0.0100    0.0100    0.0100    0.0100    0.0100    0.0100    0.0100    0.0100
    0.0100    0.0100    0.0100    0.0100    0.0100    0.0100    0.0100    0.0100
    0.0100    0.0100    0.0100    0.0100    0.0100    0.0100    0.0100    0.0100
    0.0100    0.0100    0.0100    0.0100    0.0100    0.0100    0.0100    0.0100
    0.0100    0.0100    0.0100    0.0100    0.0100    0.0100    0.0100    0.0100
    0.0100    0.0100    0.0100    0.0100    0.0100    0.0100    0.0100    0.0100
    0.0100    0.0100    0.0100    0.0100    0.0100    0.0100    0.0100    0.0100
    0.0100    0.0100    0.0100    0.0100    0.0100    0.0100    0.0100    0.0100
    0.0100    0.0100    0.0100    0.0100    0.0100    0.0100    0.0100    0.0100
    0.0100    0.0100    0.0100    0.0100    0.0100    0.0100    0.0100    0.0100
    0.0100    0.0100    0.0100    0.0100    0.0100    0.0100    0.0100    0.0100
    0.0100    0.0100    0.0100    0.0100    0.0100    0.0100    0.0100    0.0100
    0.0100    0.0100    0.0100    0.0100    0.0100    0.0100    0.0100    0.0100
    0.0100    0.0100    0.0100    0.0100    0.0100    0.0100    0.0100    0.0100
    0.0100    0.0100    0.0100    0.0100    0.0100    0.0100    0.0100    0.0100
    0.0100    0.0100    0.0100    0.0100    0.0100    0.0100    0.0100    0.0100
    0.0100    0.0100    0.0100    0.0100    0.0100    0.0100    0.0100    0.0100
    0.0100    0.0100    0.0100    0.0100    0.0100    0.0100    0.0100    0.0100
    0.0100    0.0100    0.0100    0.0100    0.0100    0.0100    0.0100    0.0100
    0.0100    0.0100    0.0100    0.0100    0.0100    0.0100    0.0100    0.0100
    0.0100    0.0100    0.0100    0.0100    0.0100    0.0100    0.0100    0.0100
    0.0100    0.0100    0.0100    0.0100    0.0100    0.0100    0.0100    0.0100
    0.0100    0.0100    0.0100    0.0100    0.0100    0.0100    0.0100    0.0100
    0.0100    0.0100    0.0100    0.0100    0.0100    0.0100    0.0100    0.0100
    0.0100    0.0100    0.0100    0.0100    0.0100    0.0100    0.0100    0.0100
    0.0100    0.0100    0.0100    0.0100    0.0100    0.0100    0.0100    0.0100
    0.0100    0.0100    0.0100    0.0100    0.0100    0.0100    0.0100    0.0100
    0.0100    0.0100    0.0100    0.0100    0.0100    0.0100    0.0100    0.0100
    0.0100    0.0100    0.0100    0.0100    0.0100    0.0100    0.0100    0.0100
    0.0100    0.0100    0.0100    0.0100    0.0100    0.0100    0.0100    0.0100
    0.0100    0.0100    0.0100    0.0100    0.0100    0.0100    0.0100    0.0100
    0.0100    0.0100    0.0100    0.0100    0.0100    0.0100    0.0100    0.0100
    0.0100    0.0100    0.0100    0.0100    0.0100    0.0100    0.0100    0.0100
    0.0100    0.0100    0.0100    0.0100    0.0100    0.0100    0.0100    0.0100
    0.0100    0.0100    0.0100    0.0100    0.0100    0.0100    0.0100    0.0100
    0.0100    0.0100    0.0100    0.0100    0.0100    0.0100    0.0100    0.0100
    0.0100    0.0100    0.0100    0.0100    0.0100    0.0100    0.0100    0.0100
    0.0100    0.0100    0.0100    0.0100    0.0100    0.0100    0.0100    0.0100
    0.0100    0.0100    0.0100    0.0100    0.0100    0.0100    0.0100    0.0100
    0.0100    0.0100    0.0100    0.0100    0.0100    0.0100    0.0100    0.0100
    0.0100    0.0100    0.0100    0.0100    0.0100    0.0100    0.0100    0.0100
    0.0100    0.0100    0.0100    0.0100    0.0100    0.0100    0.0100    0.0100
    0.0100    0.0100    0.0100    0.0100    0.0100    0.0100    0.0100    0.0100
    0.0100    0.0100    0.0100    0.0100    0.0100    0.0100    0.0100    0.0100
    0.0100    0.0100    0.0100    0.0100    0.0100    0.0100    0.0100    0.0100
    0.0100    0.0100    0.0100    0.0100    0.0100    0.0100    0.0100    0.0100
    0.0100    0.0100    0.0100    0.0100    0.0100    0.0100    0.0100    0.0100
    0.0100    0.0100    0.0100    0.0100    0.0100    0.0100    0.0100    0.0100
    0.0100    0.0100    0.0100    0.0100    0.0100    0.0100    0.0100    0.0100
    0.0100    0.0100    0.0100    0.0100    0.0100    0.0100    0.0100    0.0100
    0.0100    0.0100    0.0100    0.0100    0.0100    0.0100    0.0100    0.0100
    0.0100    0.0100    0.0100    0.0100    0.0100    0.0100    0.0100    0.0100
    0.0100    0.0100    0.0100    0.0100    0.0100    0.0100    0.0100    0.0100
    0.0100    0.0100    0.0100    0.0100    0.0100    0.0100    0.0100    0.0100
    0.0100    0.0100    0.0100    0.0100    0.0100    0.0100    0.0100    0.0100
    0.0100    0.0100    0.0100    0.0100    0.0100    0.0100    0.0100    0.0100
    0.0100    0.0100    0.0100    0.0100    0.0100    0.0100    0.0100    0.0100
    0.0100    0.0100    0.0100    0.0100    0.0100    0.0100    0.0100    0.0100
    0.0100    0.0100    0.0100    0.0100    0.0100    0.0100    0.0100    0.0100
    0.0100    0.0100    0.0100    0.0100    0.0100    0.0100    0.0100    0.0100
    0.0100    0.0100    0.0100    0.0100    0.0100    0.0100    0.0100    0.0100
    0.0100    0.0100    0.0100    0.0100    0.0100    0.0100    0.0100    0.0100
    0.0100    0.0100    0.0100    0.0100    0.0100    0.0100    0.0100    0.0100
    0.0100    0.0100    0.0100    0.0100    0.0100    0.0100    0.0100    0.0100
    0.0100    0.0100    0.0100    0.0100    0.0100    0.0100    0.0100    0.0100
    0.0100    0.0100    0.0100    0.0100    0.0100    0.0100    0.0100    0.0100
    0.0100    0.0100    0.0100    0.0100    0.0100    0.0100    0.0100    0.0100
    0.0100    0.0100    0.0100    0.0100    0.0100    0.0100    0.0100    0.0100
    0.0100    0.0100    0.0100    0.0100    0.0100    0.0100    0.0100    0.0100
    0.0100    0.0100    0.0100    0.0100    0.0100    0.0100    0.0100    0.0100
    0.0100    0.0100    0.0100    0.0100    0.0100    0.0100    0.0100    0.0100
    0.0100    0.0100    0.0100    0.0100    0.0100    0.0100    0.0100    0.0100
    0.0100    0.0100    0.0100    0.0100    0.0100    0.0100    0.0100    0.0100
    0.0100    0.0100    0.0100    0.0100    0.0100    0.0100    0.0100    0.0100
    0.0100    0.0100    0.0100    0.0100    0.0100    0.0100    0.0100    0.0100
    0.0100    0.0100    0.0100    0.0100    0.0100    0.0100    0.0100    0.0100
    0.0100    0.0100    0.0100    0.0100    0.0100    0.0100    0.0100    0.0100
    0.0100    0.0100    0.0100    0.0100    0.0100    0.0100    0.0100    0.0100
    0.0100    0.0100    0.0100    0.0100    0.0100    0.0100    0.0100    0.0100
    0.0100    0.0100    0.0100    0.0100    0.0100    0.0100    0.0100    0.0100
    0.0100    0.0100    0.0100    0.0100    0.0100    0.0100    0.0100    0.0100
    0.0100    0.0100    0.0100    0.0100    0.0100    0.0100    0.0100    0.0100
    0.0100    0.0100    0.0100    0.0100    0.0100    0.0100    0.0100    0.0100
    0.0100    0.0100    0.0100    0.0100    0.0100    0.0100    0.0100    0.0100
    0.0100    0.0100    0.0100    0.0100    0.0100    0.0100    0.0100    0.0100
    0.0100    0.0100    0.0100    0.0100    0.0100    0.0100    0.0100    0.0100
    0.0100    0.0100    0.0100    0.0100    0.0100    0.0100    0.0100    0.0100
    0.0100    0.0100    0.0100    0.0100    0.0100    0.0100    0.0100    0.0100
    0.0100    0.0100    0.0100    0.0100    0.0100    0.0100
   </PP_RAB>
 </PP_MESH>
  <PP_LOCAL type="real"  size=" 750" columns="4">
   -1.7894626454E+01   -1.7894021759E+01   -1.7892208385E+01   -1.7889188092E+01
   -1.7884963821E+01   -1.7879539648E+01   -1.7872920730E+01   -1.7865113246E+01
   -1.7856124326E+01   -1.7845961973E+01   -1.7834634975E+01   -1.7822152813E+01
   -1.7808525566E+01   -1.7793763811E+01   -1.7777878530E+01   -1.7760881009E+01
   -1.7742782748E+01   -1.7723595369E+01   -1.7703330536E+01   -1.7681999877E+01
   -1.7659614915E+01   -1.7636187007E+01   -1.7611727291E+01   -1.7586246640E+01
   -1.7559755631E+01   -1.7532264513E+01   -1.7503783193E+01   -1.7474321223E+01
   -1.7443887797E+01   -1.7412491757E+01   -1.7380141603E+01   -1.7346845512E+01
   -1.7312611355E+01   -1.7277446734E+01   -1.7241359002E+01   -1.7204355307E+01
   -1.7166442626E+01   -1.7127627804E+01   -1.7087917600E+01   -1.7047318724E+01
   -1.7005837888E+01   -1.6963481845E+01   -1.6920257433E+01   -1.6876171620E+01
   -1.6831231547E+01   -1.6785444565E+01   -1.6738818278E+01   -1.6691360579E+01
   -1.6643079685E+01   -1.6593984170E+01   -1.6544082997E+01   -1.6493385544E+01
   -1.6441901628E+01   -1.6389641532E+01   -1.6336616020E+01   -1.6282836356E+01
   -1.6228314315E+01   -1.6173062197E+01   -1.6117092831E+01   -1.6060419583E+01
   -1.6003056356E+01   -1.5945017587E+01   -1.5886318249E+01   -1.5826973839E+01
   -1.5767000370E+01   -1.5706414362E+01   -1.5645232825E+01   -1.5583473247E+01
   -1.5521153570E+01   -1.5458292174E+01   -1.5394907855E+01   -1.5331019798E+01
   -1.5266647555E+01   -1.5201811014E+01   -1.5136530377E+01   -1.5070826125E+01
   -1.5004718991E+01   -1.4938229927E+01   -1.4871380074E+01   -1.4804190728E+01
   -1.4736683308E+01   -1.4668879324E+01   -1.4600800341E+01   -1.4532467951E+01
   -1.4463903732E+01   -1.4395129223E+01   -1.4326165889E+01   -1.4257035087E+01
   -1.4187758035E+01   -1.4118355785E+01   -1.4048849190E+01   -1.3979258875E+01
   -1.3909605211E+01   -1.3839908284E+01   -1.3770187875E+01   -1.3700463431E+01
   -1.3630754042E+01   -1.3561078421E+01   -1.3491454879E+01   -1.3421901311E+01
   -1.3352435174E+01   -1.3283073471E+01   -1.3213832736E+01   -1.3144729022E+01
   -1.3075777885E+01   -1.3006994375E+01   -1.2938393028E+01   -1.2869987857E+01
   -1.2801792344E+01   -1.2733819435E+01   -1.2666081540E+01   -1.2598590524E+01
   -1.2531357713E+01   -1.2464393888E+01   -1.2397709292E+01   -1.2331313627E+01
   -1.2265216061E+01   -1.2199425235E+01   -1.2133949264E+01   -1.2068795746E+01
   -1.2003971772E+01   -1.1939483931E+01   -1.1875338323E+01   -1.1811540568E+01
   -1.1748095815E+01   -1.1685008760E+01   -1.1622283651E+01   -1.1559924305E+01
   -1.1497934220E+01   -1.1436317322E+01   -1.1375052275E+01   -1.1314110924E+01
   -1.1253569945E+01   -1.1193408604E+01   -1.1133630623E+01   -1.1074236839E+01
   -1.1015227881E+01   -1.0956604095E+01   -1.0898365552E+01   -1.0840512072E+01
   -1.0783043234E+01   -1.0725958392E+01   -1.0669256689E+01   -1.0612937075E+01
   -1.0556998317E+01   -1.0501439016E+01   -1.0446257620E+01   -1.0391452435E+01
   -1.0337021644E+01   -1.0282963313E+01   -1.0229275407E+01   -1.0175955801E+01
   -1.0123002292E+01   -1.0070412608E+01   -1.0018184420E+01   -9.9663153518E+00
   -9.9148029901E+00   -9.8636448917E+00   -9.8128385933E+00   -9.7623816194E+00
   -9.7122714893E+00   -9.6625057246E+00   -9.6130818557E+00   -9.5639974271E+00
   -9.5152500040E+00   -9.4668371764E+00   -9.4187565644E+00   -9.3710058216E+00
   -9.3235826395E+00   -9.2764847503E+00   -9.2297099295E+00   -9.1832559990E+00
   -9.1371208281E+00   -9.0913023362E+00   -9.0457984929E+00   -9.0006073197E+00
   -8.9557268903E+00   -8.9111553306E+00   -8.8668908189E+00   -8.8229315853E+00
   -8.7792759110E+00   -8.7359221279E+00   -8.6928686168E+00   -8.6501138065E+00
   -8.6076561720E+00   -8.5654942331E+00   -8.5236265520E+00   -8.4820517317E+00
   -8.4407684139E+00   -8.3997752762E+00   -8.3590710303E+00   -8.3186544192E+00
   -8.2785242148E+00   -8.2386792153E+00   -8.1991182429E+00   -8.1598401405E+00
   -8.1208437698E+00   -8.0821280083E+00   -8.0436917467E+00   -8.0055338864E+00
   -7.9676533371E+00   -7.9300490139E+00   -7.8927198354E+00   -7.8556647208E+00
   -7.8188825882E+00   -7.7823723517E+00   -7.7461329198E+00   -7.7101631934E+00
   -7.6744620635E+00   -7.6390284095E+00   -7.6038610979E+00   -7.5689589800E+00
   -7.5343208910E+00   -7.4999456483E+00   -7.4658320505E+00   -7.4319788759E+00
   -7.3983848819E+00   -7.3650488037E+00   -7.3319693539E+00   -7.2991452215E+00
   -7.2665750716E+00   -7.2342575447E+00   -7.2021912565E+00   -7.1703747979E+00
   -7.1388067343E+00   -7.1074856061E+00   -7.0764099284E+00   -7.0455781915E+00
   -7.0149888606E+00   -6.9846403768E+00   -6.9545311568E+00   -6.9246595937E+00
   -6.8950240577E+00   -6.8656228963E+00   -6.8364544349E+00   -6.8075169778E+00
   -6.7788088089E+00   -6.7503281919E+00   -6.7220733717E+00   -6.6940425749E+00
   -6.6662340108E+00   -6.6386458719E+00   -6.6112763349E+00   -6.5841235616E+00
   -6.5571856998E+00   -6.5304608839E+00   -6.5039472357E+00   -6.4776428652E+00
   -6.4515458717E+00   -6.4256543439E+00   -6.3999663610E+00   -6.3744799934E+00
   -6.3491933030E+00   -6.3241043438E+00   -6.2992111625E+00   -6.2745117992E+00
   -6.2500042871E+00   -6.2256866534E+00   -6.2015569193E+00   -6.1776131002E+00
   -6.1538532057E+00   -6.1302752402E+00   -6.1068772026E+00   -6.0836570830E+00
   -6.0606128746E+00   -6.0377425860E+00   -6.0150442545E+00   -5.9925159487E+00
   -5.9701557653E+00   -5.9479618292E+00   -5.9259322934E+00   -5.9040653377E+00
   -5.8823591691E+00   -5.8608120207E+00   -5.8394221513E+00   -5.8181878452E+00
   -5.7971074114E+00   -5.7761791834E+00   -5.7554015188E+00   -5.7347727986E+00
   -5.7142914268E+00   -5.6939558305E+00   -5.6737644587E+00   -5.6537157827E+00
   -5.6338082949E+00   -5.6140405093E+00   -5.5944109604E+00   -5.5749182033E+00
   -5.5555608129E+00   -5.5363373842E+00   -5.5172465312E+00   -5.4982868873E+00
   -5.4794571043E+00   -5.4607558527E+00   -5.4421818208E+00   -5.4237337150E+00
   -5.4054102589E+00   -5.3872101934E+00   -5.3691322764E+00   -5.3511752823E+00
   -5.3333380017E+00   -5.3156192417E+00   -5.2980178248E+00   -5.2805325891E+00
   -5.2631623882E+00   -5.2459060906E+00   -5.2287625796E+00   -5.2117307529E+00
   -5.1948095229E+00   -5.1779978156E+00   -5.1612945712E+00   -5.1446987435E+00
   -5.1282092996E+00   -5.1118252197E+00   -5.0955454974E+00   -5.0793691386E+00
   -5.0632951621E+00   -5.0473225989E+00   -5.0314504923E+00   -5.0156778976E+00
   -5.0000038819E+00   -4.9844275238E+00   -4.9689479135E+00   -4.9535641524E+00
   -4.9382753530E+00   -4.9230806387E+00   -4.9079791437E+00   -4.8929700129E+00
   -4.8780524013E+00   -4.8632254745E+00   -4.8484884080E+00   -4.8338403874E+00
   -4.8192806081E+00   -4.8048082752E+00   -4.7904226030E+00   -4.7761228157E+00
   -4.7619081463E+00   -4.7477778372E+00   -4.7337311395E+00   -4.7197673133E+00
   -4.7058856275E+00   -4.6920853593E+00   -4.6783657946E+00   -4.6647262275E+00
   -4.6511659604E+00   -4.6376843037E+00   -4.6242805758E+00   -4.6109541029E+00
   -4.5977042191E+00   -4.5845302660E+00   -4.5714315927E+00   -4.5584075559E+00
   -4.5454575195E+00   -4.5325808545E+00   -4.5197769391E+00   -4.5070451586E+00
   -4.4943849051E+00   -4.4817955775E+00   -4.4692765814E+00   -4.4568273292E+00
   -4.4444472396E+00   -4.4321357379E+00   -4.4198922556E+00   -4.4077162306E+00
   -4.3956071070E+00   -4.3835643348E+00   -4.3715873703E+00   -4.3596756754E+00
   -4.3478287181E+00   -4.3360459720E+00   -4.3243269165E+00   -4.3126710367E+00
   -4.3010778229E+00   -4.2895467713E+00   -4.2780773831E+00   -4.2666691651E+00
   -4.2553216292E+00   -4.2440342925E+00   -4.2328066772E+00   -4.2216383107E+00
   -4.2105287251E+00   -4.1994774576E+00   -4.1884840503E+00   -4.1775480498E+00
   -4.1666690078E+00   -4.1558464804E+00   -4.1450800283E+00   -4.1343692168E+00
   -4.1237136158E+00   -4.1131127995E+00   -4.1025663463E+00   -4.0920738393E+00
   -4.0816348656E+00   -4.0712490165E+00   -4.0609158875E+00   -4.0506350782E+00
   -4.0404061922E+00   -4.0302288373E+00   -4.0201026248E+00   -4.0100271704E+00
   -4.0000020934E+00   -3.9900270167E+00   -3.9801015674E+00   -3.9702253760E+00
   -3.9603980766E+00   -3.9506193072E+00   -3.9408887091E+00   -3.9312059273E+00
   -3.9215706101E+00   -3.9119824095E+00   -3.9024409806E+00   -3.8929459821E+00
   -3.8834970758E+00   -3.8740939271E+00   -3.8647362042E+00   -3.8554235788E+00
   -3.8461557257E+00   -3.8369323228E+00   -3.8277530511E+00   -3.8186175945E+00
   -3.8095256402E+00   -3.8004768781E+00   -3.7914710012E+00   -3.7825077053E+00
   -3.7735866891E+00   -3.7647076542E+00   -3.7558703050E+00   -3.7470743486E+00
   -3.7383194948E+00   -3.7296054562E+00   -3.7209319480E+00   -3.7122986882E+00
   -3.7037053973E+00   -3.6951517982E+00   -3.6866376167E+00   -3.6781625809E+00
   -3.6697264214E+00   -3.6613288715E+00   -3.6529696665E+00   -3.6446485445E+00
   -3.6363652458E+00   -3.6281195131E+00   -3.6199110915E+00   -3.6117397282E+00
   -3.6036051729E+00   -3.5955071775E+00   -3.5874454959E+00   -3.5794198846E+00
   -3.5714301019E+00   -3.5634759085E+00   -3.5555570671E+00   -3.5476733425E+00
   -3.5398245017E+00   -3.5320103136E+00   -3.5242305493E+00   -3.5164849818E+00
   -3.5087733862E+00   -3.5010955393E+00   -3.4934512202E+00   -3.4858402096E+00
   -3.4782622905E+00   -3.4707172474E+00   -3.4632048668E+00   -3.4557249372E+00
   -3.4482772486E+00   -3.4408615932E+00   -3.4334777646E+00   -3.4261255585E+00
   -3.4188047720E+00   -3.4115152043E+00   -3.4042566561E+00   -3.3970289297E+00
   -3.3898318293E+00   -3.3826651607E+00   -3.3755287312E+00   -3.3684223498E+00
   -3.3613458272E+00   -3.3542989756E+00   -3.3472816088E+00   -3.3402935420E+00
   -3.3333345922E+00   -3.3264045778E+00   -3.3195033186E+00   -3.3126306361E+00
   -3.3057863532E+00   -3.2989702941E+00   -3.2921822846E+00   -3.2854221521E+00
   -3.2786897250E+00   -3.2719848334E+00   -3.2653073087E+00   -3.2586569837E+00
   -3.2520336926E+00   -3.2454372709E+00   -3.2388675554E+00   -3.2323243841E+00
   -3.2258075967E+00   -3.2193170337E+00   -3.2128525373E+00   -3.2064139508E+00
   -3.2000011185E+00   -3.1936138865E+00   -3.1872521016E+00   -3.1809156121E+00
   -3.1746042674E+00   -3.1683179181E+00   -3.1620564161E+00   -3.1558196143E+00
   -3.1496073669E+00   -3.1434195291E+00   -3.1372559573E+00   -3.1311165092E+00
   -3.1250010433E+00   -3.1189094193E+00   -3.1128414982E+00   -3.1067971419E+00
   -3.1007762133E+00   -3.0947785765E+00   -3.0888040967E+00   -3.0828526399E+00
   -3.0769240733E+00   -3.0710182652E+00   -3.0651350847E+00   -3.0592744020E+00
   -3.0534360884E+00   -3.0476200159E+00   -3.0418260579E+00   -3.0360540883E+00
   -3.0303039822E+00   -3.0245756157E+00   -3.0188688657E+00   -3.0131836101E+00
   -3.0075197276E+00   -3.0018770980E+00   -2.9962556018E+00   -2.9906551206E+00
   -2.9850755367E+00   -2.9795167334E+00   -2.9739785948E+00   -2.9684610059E+00
   -2.9629638526E+00   -2.9574870214E+00   -2.9520304000E+00   -2.9465938766E+00
   -2.9411773405E+00   -2.9357806816E+00   -2.9304037907E+00   -2.9250465594E+00
   -2.9197088800E+00   -2.9143906457E+00   -2.9090917505E+00   -2.9038120890E+00
   -2.8985515567E+00   -2.8933100499E+00   -2.8880874656E+00   -2.8828837013E+00
   -2.8776986557E+00   -2.8725322278E+00   -2.8673843176E+00   -2.8622548257E+00
   -2.8571436534E+00   -2.8520507028E+00   -2.8469758766E+00   -2.8419190781E+00
   -2.8368802117E+00   -2.8318591819E+00   -2.8268558943E+00   -2.8218702550E+00
   -2.8169021707E+00   -2.8119515490E+00   -2.8070182979E+00   -2.8021023262E+00
   -2.7972035432E+00   -2.7923218589E+00   -2.7874571840E+00   -2.7826094297E+00
   -2.7777785079E+00   -2.7729643311E+00   -2.7681668123E+00   -2.7633858653E+00
   -2.7586214043E+00   -2.7538733443E+00   -2.7491416006E+00   -2.7444260893E+00
   -2.7397267271E+00   -2.7350434310E+00   -2.7303761190E+00   -2.7257247091E+00
   -2.7210891205E+00   -2.7164692723E+00   -2.7118650847E+00   -2.7072764781E+00
   -2.7027033736E+00   -2.6981456927E+00   -2.6936033576E+00   -2.6890762908E+00
   -2.6845644155E+00   -2.6800676554E+00   -2.6755859347E+00   -2.6711191779E+00
   -2.6666673104E+00   -2.6622302578E+00   -2.6578079462E+00   -2.6534003023E+00
   -2.6490072533E+00   -2.6446287267E+00   -2.6402646508E+00   -2.6359149540E+00
   -2.6315795655E+00   -2.6272584147E+00   -2.6229514317E+00   -2.6186585467E+00