<UPF version="2.0.1">
  <PP_INFO>

 This pseudopotential file has been produced using the code
 ONCVPSP  (Optimized Norm-Conservinng Vanderbilt PSeudopotential)
 fully-relativistic version 4.0.1 06/04/2019 by D. R. Hamann
 The code is available through a link at URL www.mat-simresearch.com.
 Documentation with the package provides a full discription of the
 input data below.


 While it is not required under the terms of the GNU GPL, it is
 suggested that you cite D. R. Hamann, Phys. Rev. B 88, 085117 (2013)
 in any publication using these pseudopotentials.

    <PP_INPUTFILE>
# ATOM AND REFERENCE CONFIGURATION
# atsym  z   nc   nv     iexc    psfile
  O  8.00    1    2       3      upf
#
#   n    l    f        energy (Ha)
    1    0    2.00
    2    0    2.00
    2    1    4.00
#
# PSEUDOPOTENTIAL AND OPTIMIZATION
# lmax
    1
#
#   l,   rc,     ep,   ncon, nbas, qcut
    0   1.28705   0.00000    5    8   8.98916
    1   1.46383   0.00000    5    8   9.14990
#
# LOCAL POTENTIAL
# lloc, lpopt,  rc(5),   dvloc0
    4    5   0.89909      0.00000
#
# VANDERBILT-KLEINMAN-BYLANDER PROJECTORs
# l, nproj, debl
    0    2   1.51851
    1    2   1.53631
#
# MODEL CORE CHARGE
# icmod, fcfact, rcfact
    0   0.00000   0.00000
#
# LOG DERIVATIVE ANALYSIS
# epsh1, epsh2, depsh
   -5.00    3.00    0.02
#
# OUTPUT GRID
# rlmax, drl
    6.00    0.01
#
# TEST CONFIGURATIONS
# ncnf
    0
# nvcnf
#   n    l    f
    </PP_INPUTFILE>
  </PP_INFO>
  <!--                               -->
  <!-- END OF HUMAN READABLE SECTION -->
  <!--                               -->
    <PP_HEADER
       generated="Generated using ONCVPSP code by D. R. Hamann"
       author="anonymous"
       date="220414"
       comment=""
       element="O "
       pseudo_type="NC"
       relativistic="full"
       is_ultrasoft="F"
       is_paw="F"
       is_coulomb="F"
       has_so="T"
       has_wfc="F"
       has_gipaw="F"
       core_correction="F"
       functional="PZ"
       z_valence="    6.00"
       total_psenergy="  -3.13565649226E+01"
       rho_cutoff="   9.25000000000E+00"
       l_max="1"
       l_local="-1"
       mesh_size="   926"
       number_of_wfc="3"
       number_of_proj="6"/>
 <PP_MESH>
   <PP_R type="real"  size=" 926" columns="8">
    0.0000    0.0100    0.0200    0.0300    0.0400    0.0500    0.0600    0.0700
    0.0800    0.0900    0.1000    0.1100    0.1200    0.1300    0.1400    0.1500
    0.1600    0.1700    0.1800    0.1900    0.2000    0.2100    0.2200    0.2300
    0.2400    0.2500    0.2600    0.2700    0.2800    0.2900    0.3000    0.3100
    0.3200    0.3300    0.3400    0.3500    0.3600    0.3700    0.3800    0.3900
    0.4000    0.4100    0.4200    0.4300    0.4400    0.4500    0.4600    0.4700
    0.4800    0.4900    0.5000    0.5100    0.5200    0.5300    0.5400    0.5500
    0.5600    0.5700    0.5800    0.5900    0.6000    0.6100    0.6200    0.6300
    0.6400    0.6500    0.6600    0.6700    0.6800    0.6900    0.7000    0.7100
    0.7200    0.7300    0.7400    0.7500    0.7600    0.7700    0.7800    0.7900
    0.8000    0.8100    0.8200    0.8300    0.8400    0.8500    0.8600    0.8700
    0.8800    0.8900    0.9000    0.9100    0.9200    0.9300    0.9400    0.9500
    0.9600    0.9700    0.9800    0.9900    1.0000    1.0100    1.0200    1.0300
    1.0400    1.0500    1.0600    1.0700    1.0800    1.0900    1.1000    1.1100
    1.1200    1.1300    1.1400    1.1500    1.1600    1.1700    1.1800    1.1900
    1.2000    1.2100    1.2200    1.2300    1.2400    1.2500    1.2600    1.2700
    1.2800    1.2900    1.3000    1.3100    1.3200    1.3300    1.3400    1.3500
    1.3600    1.3700    1.3800    1.3900    1.4000    1.4100    1.4200    1.4300
    1.4400    1.4500    1.4600    1.4700    1.4800    1.4900    1.5000    1.5100
    1.5200    1.5300    1.5400    1.5500    1.5600    1.5700    1.5800    1.5900
    1.6000    1.6100    1.6200    1.6300    1.6400    1.6500    1.6600    1.6700
    1.6800    1.6900    1.7000    1.7100    1.7200    1.7300    1.7400    1.7500
    1.7600    1.7700    1.7800    1.7900    1.8000    1.8100    1.8200    1.8300
    1.8400    1.8500    1.8600    1.8700    1.8800    1.8900    1.9000    1.9100
    1.9200    1.9300    1.9400    1.9500    1.9600    1.9700    1.9800    1.9900
    2.0000    2.0100    2.0200    2.0300    2.0400    2.0500    2.0600    2.0700
    2.0800    2.0900    2.1000    2.1100    2.1200    2.1300    2.1400    2.1500
    2.1600    2.1700    2.1800    2.1900    2.2000    2.2100    2.2200    2.2300
    2.2400    2.2500    2.2600    2.2700    2.2800    2.2900    2.3000    2.3100
    2.3200    2.3300    2.3400    2.3500    2.3600    2.3700    2.3800    2.3900
    2.4000    2.4100    2.4200    2.4300    2.4400    2.4500    2.4600    2.4700
    2.4800    2.4900    2.5000    2.5100    2.5200    2.5300    2.5400    2.5500
    2.5600    2.5700    2.5800    2.5900    2.6000    2.6100    2.6200    2.6300
    2.6400    2.6500    2.6600    2.6700    2.6800    2.6900    2.7000    2.7100
    2.7200    2.7300    2.7400    2.7500    2.7600    2.7700    2.7800    2.7900
    2.8000    2.8100    2.8200    2.8300    2.8400    2.8500    2.8600    2.8700
    2.8800    2.8900    2.9000    2.9100    2.9200    2.9300    2.9400    2.9500
    2.9600    2.9700    2.9800    2.9900    3.0000    3.0100    3.0200    3.0300
    3.0400    3.0500    3.0600    3.0700    3.0800    3.0900    3.1000    3.1100
    3.1200    3.1300    3.1400    3.1500    3.1600    3.1700    3.1800    3.1900
    3.2000    3.2100    3.2200    3.2300    3.2400    3.2500    3.2600    3.2700
    3.2800    3.2900    3.3000    3.3100    3.3200    3.3300    3.3400    3.3500
    3.3600    3.3700    3.3800    3.3900    3.4000    3.4100    3.4200    3.4300
    3.4400    3.4500    3.4600    3.4700    3.4800    3.4900    3.5000    3.5100
    3.5200    3.5300    3.5400    3.5500    3.5600    3.5700    3.5800    3.5900
    3.6000    3.6100    3.6200    3.6300    3.6400    3.6500    3.6600    3.6700
    3.6800    3.6900    3.7000    3.7100    3.7200    3.7300    3.7400    3.7500
    3.7600    3.7700    3.7800    3.7900    3.8000    3.8100    3.8200    3.8300
    3.8400    3.8500    3.8600    3.8700    3.8800    3.8900    3.9000    3.9100
    3.9200    3.9300    3.9400    3.9500    3.9600    3.9700    3.9800    3.9900
    4.0000    4.0100    4.0200    4.0300    4.0400    4.0500    4.0600    4.0700
    4.0800    4.0900    4.1000    4.1100    4.1200    4.1300    4.1400    4.1500
    4.1600    4.1700    4.1800    4.1900    4.2000    4.2100    4.2200    4.2300
    4.2400    4.2500    4.2600    4.2700    4.2800    4.2900    4.3000    4.3100
    4.3200    4.3300    4.3400    4.3500    4.3600    4.3700    4.3800    4.3900
    4.4000    4.4100    4.4200    4.4300    4.4400    4.4500    4.4600    4.4700
    4.4800    4.4900    4.5000    4.5100    4.5200    4.5300    4.5400    4.5500
    4.5600    4.5700    4.5800    4.5900    4.6000    4.6100    4.6200    4.6300
    4.6400    4.6500    4.6600    4.6700    4.6800    4.6900    4.7000    4.7100
    4.7200    4.7300    4.7400    4.7500    4.7600    4.7700    4.7800    4.7900
    4.8000    4.8100    4.8200    4.8300    4.8400    4.8500    4.8600    4.8700
    4.8800    4.8900    4.9000    4.9100    4.9200    4.9300    4.9400    4.9500
    4.9600    4.9700    4.9800    4.9900    5.0000    5.0100    5.0200    5.0300
    5.0400    5.0500    5.0600    5.0700    5.0800    5.0900    5.1000    5.1100
    5.1200    5.1300    5.1400    5.1500    5.1600    5.1700    5.1800    5.1900
    5.2000    5.2100    5.2200    5.2300    5.2400    5.2500    5.2600    5.2700
    5.2800    5.2900    5.3000    5.3100    5.3200    5.3300    5.3400    5.3500
    5.3600    5.3700    5.3800    5.3900    5.4000    5.4100    5.4200    5.4300
    5.4400    5.4500    5.4600    5.4700    5.4800    5.4900    5.5000    5.5100
    5.5200    5.5300    5.5400    5.5500    5.5600    5.5700    5.5800    5.5900
    5.6000    5.6100    5.6200    5.6300    5.6400    5.6500    5.6600    5.6700
    5.6800    5.6900    5.7000    5.7100    5.7200    5.7300    5.7400    5.7500
    5.7600    5.7700    5.7800    5.7900    5.8000    5.8100    5.8200    5.8300
    5.8400    5.8500    5.8600    5.8700    5.8800    5.8900    5.9000    5.9100
    5.9200    5.9300    5.9400    5.9500    5.9600    5.9700    5.9800    5.9900
    6.0000    6.0100    6.0200    6.0300    6.0400    6.0500    6.0600    6.0700
    6.0800    6.0900    6.1000    6.1100    6.1200    6.1300    6.1400    6.1500
    6.1600    6.1700    6.1800    6.1900    6.2000    6.2100    6.2200    6.2300
    6.2400    6.2500    6.2600    6.2700    6.2800    6.2900    6.3000    6.3100
    6.3200    6.3300    6.3400    6.3500    6.3600    6.3700    6.3800    6.3900
    6.4000    6.4100    6.4200    6.4300    6.4400    6.4500    6.4600    6.4700
    6.4800    6.4900    6.5000    6.5100    6.5200    6.5300    6.5400    6.5500
    6.5600    6.5700    6.5800    6.5900    6.6000    6.6100    6.6200    6.6300
    6.6400    6.6500    6.6600    6.6700    6.6800    6.6900    6.7000    6.7100
    6.7200    6.7300    6.7400    6.7500    6.7600    6.7700    6.7800    6.7900
    6.8000    6.8100    6.8200    6.8300    6.8400    6.8500    6.8600    6.8700
    6.8800    6.8900    6.9000    6.9100    6.9200    6.9300    6.9400    6.9500
    6.9600    6.9700    6.9800    6.9900    7.0000    7.0100    7.0200    7.0300
    7.0400    7.0500    7.0600    7.0700    7.0800    7.0900    7.1000    7.1100
    7.1200    7.1300    7.1400    7.1500    7.1600    7.1700    7.1800    7.1900
    7.2000    7.2100    7.2200    7.2300    7.2400    7.2500    7.2600    7.2700
    7.2800    7.2900    7.3000    7.3100    7.3200    7.3300    7.3400    7.3500
    7.3600    7.3700    7.3800    7.3900    7.4000    7.4100    7.4200    7.4300
    7.4400    7.4500    7.4600    7.4700    7.4800    7.4900    7.5000    7.5100
    7.5200    7.5300    7.5400    7.5500    7.5600    7.5700    7.5800    7.5900
    7.6000    7.6100    7.6200    7.6300    7.6400    7.6500    7.6600    7.6700
    7.6800    7.6900    7.7000    7.7100    7.7200    7.7300    7.7400    7.7500
    7.7600    7.7700    7.7800    7.7900    7.8000    7.8100    7.8200    7.8300
    7.8400    7.8500    7.8600    7.8700    7.8800    7.8900    7.9000    7.9100
    7.9200    7.9300    7.9400    7.9500    7.9600    7.9700    7.9800    7.9900
    8.0000    8.0100    8.0200    8.0300    8.0400    8.0500    8.0600    8.0700
    8.0800    8.0900    8.1000    8.1100    8.1200    8.1300    8.1400    8.1500
    8.1600    8.1700    8.1800    8.1900    8.2000    8.2100    8.2200    8.2300
    8.2400    8.2500    8.2600    8.2700    8.2800    8.2900    8.3000    8.3100
    8.3200    8.3300    8.3400    8.3500    8.3600    8.3700    8.3800    8.3900
    8.4000    8.4100    8.4200    8.4300    8.4400    8.4500    8.4600    8.4700
    8.4800    8.4900    8.5000    8.5100    8.5200    8.5300    8.5400    8.5500
    8.5600    8.5700    8.5800    8.5900    8.6000    8.6100    8.6200    8.6300
    8.6400    8.6500    8.6600    8.6700    8.6800    8.6900    8.7000    8.7100
    8.7200    8.7300    8.7400    8.7500    8.7600    8.7700    8.7800    8.7900
    8.8000    8.8100    8.8200    8.8300    8.8400    8.8500    8.8600    8.8700
    8.8800    8.8900    8.9000    8.9100    8.9200    8.9300    8.9400    8.9500
    8.9600    8.9700    8.9800    8.9900    9.0000    9.0100    9.0200    9.0300
    9.0400    9.0500    9.0600    9.0700    9.0800    9.0900    9.1000    9.1100
    9.1200    9.1300    9.1400    9.1500    9.1600    9.1700    9.1800    9.1900
    9.2000    9.2100    9.2200    9.2300    9.2400    9.2500
   </PP_R>
   <PP_RAB type="real"  size=" 926" columns="8">
    0.0100    0.0100    0.0100    0.0100    0.0100    0.0100    0.0100    0.0100
    0.0100    0.0100    0.0100    0.0100    0.0100    0.0100    0.0100    0.0100
    0.0100    0.0100    0.0100    0.0100    0.0100    0.0100    0.0100    0.0100
    0.0100    0.0100    0.0100    0.0100    0.0100    0.0100    0.0100    0.0100
    0.0100    0.0100    0.0100    0.0100    0.0100    0.0100    0.0100    0.0100
    0.0100    0.0100    0.0100    0.0100    0.0100    0.0100    0.0100    0.0100
    0.0100    0.0100    0.0100    0.0100    0.0100    0.0100    0.0100    0.0100
    0.0100    0.0100    0.0100    0.0100    0.0100    0.0100    0.0100    0.0100
    0.0100    0.0100    0.0100    0.0100    0.0100    0.0100    0.0100    0.0100
    0.0100    0.0100    0.0100    0.0100    0.0100    0.0100    0.0100    0.0100
    0.0100    0.0100    0.0100    0.0100    0.0100    0.0100    0.0100    0.0100
    0.0100    0.0100    0.0100    0.0100    0.0100    0.0100    0.0100    0.0100
    0.0100    0.0100    0.0100    0.0100    0.0100    0.0100    0.0100    0.0100
    0.0100    0.0100    0.0100    0.0100    0.0100    0.0100    0.0100    0.0100
    0.0100    0.0100    0.0100    0.0100    0.0100    0.0100    0.0100    0.0100
    0.0100    0.0100    0.0100    0.0100    0.0100    0.0100    0.0100    0.0100
    0.0100    0.0100    0.0100    0.0100    0.0100    0.0100    0.0100    0.0100
    0.0100    0.0100    0.0100    0.0100    0.0100    0.0100    0.0100    0.0100
    0.0100    0.0100    0.0100    0.0100    0.0100    0.0100    0.0100    0.0100
    0.0100    0.0100    0.0100    0.0100    0.0100    0.0100    0.0100    0.0100
    0.0100    0.0100    0.0100    0.0100    0.0100    0.0100    0.0100    0.0100
    0.0100    0.0100    0.0100    0.0100    0.0100    0.0100    0.0100    0.0100
    0.0100    0.0100    0.0100    0.0100    0.0100    0.0100    0.0100    0.0100
    0.0100    0.0100    0.0100    0.0100    0.0100    0.0100    0.0100    0.0100
    0.0100    0.0100    0.0100    0.0100    0.0100    0.0100    0.0100    0.0100
    0.0100    0.0100    0.0100    0.0100    0.0100    0.0100    0.0100    0.0100
    0.0100    0.0100    0.0100    0.0100    0.0100    0.0100    0.0100    0.0100
    0.0100    0.0100    0.0100    0.0100    0.0100    0.0100    0.0100    0.0100
    0.0100    0.0100    0.0100    0.0100    0.0100    0.0100    0.0100    0.0100
    0.0100    0.0100    0.0100    0.0100    0.0100    0.0100    0.0100    0.0100
    0.0100    0.0100    0.0100    0.0100    0.0100    0.0100    0.0100    0.0100
    0.0100    0.0100    0.0100    0.0100    0.0100    0.0100    0.0100    0.0100
    0.0100    0.0100    0.0100    0.0100    0.0100    0.0100    0.0100    0.0100
    0.0100    0.0100    0.0100    0.0100    0.0100    0.0100    0.0100    0.0100
    0.0100    0.0100    0.0100    0.0100    0.0100    0.0100    0.0100    0.0100
    0.0100    0.0100    0.0100    0.0100    0.0100    0.0100    0.0100    0.0100
    0.0100    0.0100    0.0100    0.0100    0.0100    0.0100    0.0100    0.0100
    0.0100    0.0100    0.0100    0.0100    0.0100    0.0100    0.0100    0.0100
    0.0100    0.0100    0.0100    0.0100    0.0100    0.0100    0.0100    0.0100
    0.0100    0.0100    0.0100    0.0100    0.0100    0.0100    0.0100    0.0100
    0.0100    0.0100    0.0100    0.0100    0.0100    0.0100    0.0100    0.0100
    0.0100    0.0100    0.0100    0.0100    0.0100    0.0100    0.0100    0.0100
    0.0100    0.0100    0.0100    0.0100    0.0100    0.0100    0.0100    0.0100
    0.0100    0.0100    0.0100    0.0100    0.0100    0.0100    0.0100    0.0100
    0.0100    0.0100    0.0100    0.0100    0.0100    0.0100    0.0100    0.0100
    0.0100    0.0100    0.0100    0.0100    0.0100    0.0100    0.0100    0.0100
    0.0100    0.0100    0.0100    0.0100    0.0100    0.0100    0.0100    0.0100
    0.0100    0.0100    0.0100    0.0100    0.0100    0.0100    0.0100    0.0100
    0.0100    0.0100    0.0100    0.0100    0.0100    0.0100    0.0100    0.0100
    0.0100    0.0100    0.0100    0.0100    0.0100    0.0100    0.0100    0.0100
    0.0100    0.0100    0.0100    0.0100    0.0100    0.0100    0.0100    0.0100
    0.0100    0.0100    0.0100    0.0100    0.0100    0.0100    0.0100    0.0100
    0.0100    0.0100    0.0100    0.0100    0.0100    0.0100    0.0100    0.0100
    0.0100    0.0100    0.0100    0.0100    0.0100    0.0100    0.0100    0.0100
    0.0100    0.0100    0.0100    0.0100    0.0100    0.0100    0.0100    0.0100
    0.0100    0.0100    0.0100    0.0100    0.0100    0.0100    0.0100    0.0100
    0.0100    0.0100    0.0100    0.0100    0.0100    0.0100    0.0100    0.0100
    0.0100    0.0100    0.0100    0.0100    0.0100    0.0100    0.0100    0.0100
    0.0100    0.0100    0.0100    0.0100    0.0100    0.0100    0.0100    0.0100
    0.0100    0.0100    0.0100    0.0100    0.0100    0.0100    0.0100    0.0100
    0.0100    0.0100    0.0100    0.0100    0.0100    0.0100    0.0100    0.0100
    0.0100    0.0100    0.0100    0.0100    0.0100    0.0100    0.0100    0.0100
    0.0100    0.0100    0.0100    0.0100    0.0100    0.0100    0.0100    0.0100
    0.0100    0.0100    0.0100    0.0100    0.0100    0.0100    0.0100    0.0100
    0.0100    0.0100    0.0100    0.0100    0.0100    0.0100    0.0100    0.0100
    0.0100    0.0100    0.0100    0.0100    0.0100    0.0100    0.0100    0.0100
    0.0100    0.0100    0.0100    0.0100    0.0100    0.0100    0.0100    0.0100
    0.0100    0.0100    0.0100    0.0100    0.0100    0.0100    0.0100    0.0100
    0.0100    0.0100    0.0100    0.0100    0.0100    0.0100    0.0100    0.0100
    0.0100    0.0100    0.0100    0.0100    0.0100    0.0100    0.0100    0.0100
    0.0100    0.0100    0.0100    0.0100    0.0100    0.0100    0.0100    0.0100
    0.0100    0.0100    0.0100    0.0100    0.0100    0.0100    0.0100    0.0100
    0.0100    0.0100    0.0100    0.0100    0.0100    0.0100    0.0100    0.0100
    0.0100    0.0100    0.0100    0.0100    0.0100    0.0100    0.0100    0.0100
    0.0100    0.0100    0.0100    0.0100    0.0100    0.0100    0.0100    0.0100
    0.0100    0.0100    0.0100    0.0100    0.0100    0.0100    0.0100    0.0100
    0.0100    0.0100    0.0100    0.0100    0.0100    0.0100    0.0100    0.0100
    0.0100    0.0100    0.0100    0.0100    0.0100    0.0100    0.0100    0.0100
    0.0100    0.0100    0.0100    0.0100    0.0100    0.0100    0.0100    0.0100
    0.0100    0.0100    0.0100    0.0100    0.0100    0.0100    0.0100    0.0100
    0.0100    0.0100    0.0100    0.0100    0.0100    0.0100    0.0100    0.0100
    0.0100    0.0100    0.0100    0.0100    0.0100    0.0100    0.0100    0.0100
    0.0100    0.0100    0.0100    0.0100    0.0100    0.0100    0.0100    0.0100
    0.0100    0.0100    0.0100    0.0100    0.0100    0.0100    0.0100    0.0100
    0.0100    0.0100    0.0100    0.0100    0.0100    0.0100    0.0100    0.0100
    0.0100    0.0100    0.0100    0.0100    0.0100    0.0100    0.0100    0.0100
    0.0100    0.0100    0.0100    0.0100    0.0100    0.0100    0.0100    0.0100
    0.0100    0.0100    0.0100    0.0100    0.0100    0.0100    0.0100    0.0100
    0.0100    0.0100    0.0100    0.0100    0.0100    0.0100    0.0100    0.0100
    0.0100    0.0100    0.0100    0.0100    0.0100    0.0100    0.0100    0.0100
    0.0100    0.0100    0.0100    0.0100    0.0100    0.0100    0.0100    0.0100
    0.0100    0.0100    0.0100    0.0100    0.0100    0.0100    0.0100    0.0100
    0.0100    0.0100    0.0100    0.0100    0.0100    0.0100    0.0100    0.0100
    0.0100    0.0100    0.0100    0.0100    0.0100    0.0100    0.0100    0.0100
    0.0100    0.0100    0.0100    0.0100    0.0100    0.0100    0.0100    0.0100
    0.0100    0.0100    0.0100    0.0100    0.0100    0.0100    0.0100    0.0100
    0.0100    0.0100    0.0100    0.0100    0.0100    0.0100    0.0100    0.0100
    0.0100    0.0100    0.0100    0.0100    0.0100    0.0100    0.0100    0.0100
    0.0100    0.0100    0.0100    0.0100    0.0100    0.0100    0.0100    0.0100
    0.0100    0.0100    0.0100    0.0100    0.0100    0.0100    0.0100    0.0100
    0.0100    0.0100    0.0100    0.0100    0.0100    0.0100    0.0100    0.0100
    0.0100    0.0100    0.0100    0.0100    0.0100    0.0100    0.0100    0.0100
    0.0100    0.0100    0.0100    0.0100    0.0100    0.0100    0.0100    0.0100
    0.0100    0.0100    0.0100    0.0100    0.0100    0.0100    0.0100    0.0100
    0.0100    0.0100    0.0100    0.0100    0.0100    0.0100    0.0100    0.0100
    0.0100    0.0100    0.0100    0.0100    0.0100    0.0100    0.0100    0.0100
    0.0100    0.0100    0.0100    0.0100    0.0100    0.0100    0.0100    0.0100
    0.0100    0.0100    0.0100    0.0100    0.0100    0.0100    0.0100    0.0100
    0.0100    0.0100    0.0100    0.0100    0.0100    0.0100    0.0100    0.0100
    0.0100    0.0100    0.0100    0.0100    0.0100    0.0100    0.0100    0.0100
    0.0100    0.0100    0.0100    0.0100    0.0100    0.0100    0.0100    0.0100
    0.0100    0.0100    0.0100    0.0100    0.0100    0.0100    0.0100    0.0100
    0.0100    0.0100    0.0100    0.0100    0.0100    0.0100    0.0100    0.0100
    0.0100    0.0100    0.0100    0.0100    0.0100    0.0100    0.0100    0.0100
    0.0100    0.0100    0.0100    0.0100    0.0100    0.0100    0.0100    0.0100
    0.0100    0.0100    0.0100    0.0100    0.0100    0.0100
   </PP_RAB>
 </PP_MESH>
  <PP_LOCAL type="real"  size=" 926" columns="4">
   -2.9554738346E+01   -2.9549810075E+01   -2.9535000856E+01   -2.9510446175E+01
   -2.9476327840E+01   -2.9432883438E+01   -2.9380392490E+01   -2.9319162203E+01
   -2.9249535669E+01   -2.9171709500E+01   -2.9086102229E+01   -2.8993022477E+01
   -2.8892763324E+01   -2.8785600262E+01   -2.8671790584E+01   -2.8551573829E+01
   -2.8425172902E+01   -2.8292795611E+01   -2.8154636406E+01   -2.8010878174E+01
   -2.7861693996E+01   -2.7707248808E+01   -2.7547700925E+01   -2.7383203424E+01
   -2.7213905379E+01   -2.7039952944E+01   -2.6861490308E+01   -2.6678660520E+01
   -2.6491606204E+01   -2.6300470165E+01   -2.6105395910E+01   -2.5906528083E+01
   -2.5704012828E+01   -2.5497998083E+01   -2.5288633822E+01   -2.5076072233E+01
   -2.4860467860E+01   -2.4641977691E+01   -2.4420761211E+01   -2.4196980419E+01
   -2.3970799811E+01   -2.3742386326E+01   -2.3511909275E+01   -2.3279540232E+01
   -2.3045452904E+01   -2.2809822981E+01   -2.2572827958E+01   -2.2334646943E+01
   -2.2095460439E+01   -2.1855450115E+01   -2.1614798551E+01   -2.1373688982E+01
   -2.1132305008E+01   -2.0890830308E+01   -2.0649448329E+01   -2.0408341971E+01
   -2.0167693252E+01   -1.9927682976E+01   -1.9688490377E+01   -1.9450292763E+01
   -1.9213265153E+01   -1.8977579897E+01   -1.8743406303E+01   -1.8510910248E+01
   -1.8280253783E+01   -1.8051594743E+01   -1.7825086339E+01   -1.7600876758E+01
   -1.7379108751E+01   -1.7159919224E+01   -1.6943438820E+01   -1.6729791502E+01
   -1.6519094134E+01   -1.6311456057E+01   -1.6106978667E+01   -1.5905754988E+01
   -1.5707869241E+01   -1.5513396419E+01   -1.5322401851E+01   -1.5134940772E+01
   -1.4951057881E+01   -1.4770786914E+01   -1.4594150191E+01   -1.4421158187E+01
   -1.4251809075E+01   -1.4086088286E+01   -1.3923968055E+01   -1.3765406968E+01
   -1.3610349500E+01   -1.3458725558E+01   -1.3310450016E+01   -1.3165422569E+01
   -1.3023534708E+01   -1.2884680991E+01   -1.2748760677E+01   -1.2615677499E+01
   -1.2485339444E+01   -1.2357658553E+01   -1.2232550724E+01   -1.2109935534E+01
   -1.1989736061E+01   -1.1871878725E+01   -1.1756293130E+01   -1.1642911911E+01
   -1.1531670592E+01   -1.1422507448E+01   -1.1315363370E+01   -1.1210181739E+01
   -1.1106908296E+01   -1.1005491030E+01   -1.0905880055E+01   -1.0808027502E+01
   -1.0711887408E+01   -1.0617415604E+01   -1.0524569501E+01   -1.0433311869E+01
   -1.0343597940E+01   -1.0255389607E+01   -1.0168652511E+01   -1.0083351399E+01
   -9.9994521277E+00   -9.9169216889E+00   -9.8357281283E+00   -9.7558404850E+00
   -9.6772287361E+00   -9.5998637448E+00   -9.5237172146E+00   -9.4487616467E+00
   -9.3749703021E+00   -9.3023171686E+00   -9.2307769316E+00   -9.1603249479E+00
   -9.0909372232E+00   -9.0225903905E+00   -8.9552616910E+00   -8.8889289566E+00
   -8.8235705943E+00   -8.7591655720E+00   -8.6956934052E+00   -8.6331341448E+00
   -8.5714683654E+00   -8.5106771543E+00   -8.4507421008E+00   -8.3916452848E+00
   -8.3333692667E+00   -8.2758970756E+00   -8.2192121980E+00   -8.1632985660E+00
   -8.1081405448E+00   -8.0537229196E+00   -8.0000308814E+00   -7.9470500135E+00
   -7.8947662786E+00   -7.8431660065E+00   -7.7922358823E+00   -7.7419629346E+00
   -7.6923345247E+00   -7.6433383359E+00   -7.5949623636E+00   -7.5471949050E+00
   -7.5000245500E+00   -7.4534401719E+00   -7.4074309190E+00   -7.3619862058E+00
   -7.3170957049E+00   -7.2727493395E+00   -7.2289372754E+00   -7.1856499142E+00
   -7.1428778859E+00   -7.1006120423E+00   -7.0588434505E+00   -7.0175633867E+00
   -6.9767633297E+00   -6.9364349556E+00   -6.8965701316E+00   -6.8571609112E+00
   -6.8181995280E+00   -6.7796783916E+00   -6.7415900819E+00   -6.7039273446E+00
   -6.6666830868E+00   -6.6298503723E+00   -6.5934224171E+00   -6.5573925858E+00
   -6.5217543872E+00   -6.4865014703E+00   -6.4516276209E+00   -6.4171267574E+00
   -6.3829929280E+00   -6.3492203066E+00   -6.3158031899E+00   -6.2827359938E+00
   -6.2500132509E+00   -6.2176296069E+00   -6.1855798178E+00   -6.1538587474E+00
   -6.1224613642E+00   -6.0913827389E+00   -6.0606180418E+00   -6.0301625403E+00
   -6.0000115962E+00   -5.9701606640E+00   -5.9406052879E+00   -5.9113411002E+00
   -5.8823638185E+00   -5.8536692442E+00   -5.8252532601E+00   -5.7971118286E+00
   -5.7692409899E+00   -5.7416368597E+00   -5.7142956279E+00   -5.6872135565E+00
   -5.6603869783E+00   -5.6338122945E+00   -5.6074859740E+00   -5.5814045511E+00
   -5.5555646246E+00   -5.5299628557E+00   -5.5045959669E+00   -5.4794607407E+00
   -5.4545540180E+00   -5.4298726970E+00   -5.4054137316E+00   -5.3811741305E+00
   -5.3571509557E+00   -5.3333413216E+00   -5.3097423935E+00   -5.2863513866E+00
   -5.2631655652E+00   -5.2401822413E+00   -5.2173987734E+00   -5.1948125662E+00
   -5.1724210687E+00   -5.1502217740E+00   -5.1282122179E+00   -5.1063899781E+00
   -5.0847526736E+00   -5.0632979633E+00   -5.0420235456E+00   -5.0209271575E+00
   -5.0000065734E+00   -4.9792596051E+00   -4.9586841001E+00   -4.9382779417E+00
   -4.9180390477E+00   -4.8979653700E+00   -4.8780548936E+00   -4.8583056364E+00
   -4.8387156482E+00   -4.8192830100E+00   -4.8000058336E+00   -4.7808822609E+00
   -4.7619104632E+00   -4.7430886409E+00   -4.7244150225E+00   -4.7058878646E+00
   -4.6875054506E+00   -4.6692660911E+00   -4.6511681225E+00   -4.6332099071E+00
   -4.6153898324E+00   -4.5977063106E+00   -4.5801577780E+00   -4.5627426948E+00
   -4.5454595446E+00   -4.5283068338E+00   -4.5112830912E+00   -4.4943868677E+00
   -4.4776167359E+00   -4.4609712896E+00   -4.4444491433E+00   -4.4280489321E+00
   -4.4117693111E+00   -4.3956089552E+00   -4.3795665584E+00   -4.3636408341E+00
   -4.3478305139E+00   -4.3321343480E+00   -4.3165511046E+00   -4.3010795694E+00
   -4.2857185455E+00   -4.2704668531E+00   -4.2553233290E+00   -4.2402868266E+00
   -4.2253562155E+00   -4.2105303809E+00   -4.1958082237E+00   -4.1811886603E+00
   -4.1666706219E+00   -4.1522530547E+00   -4.1379349193E+00   -4.1237151906E+00
   -4.1095928575E+00   -4.0955669229E+00   -4.0816364031E+00   -4.0678003278E+00
   -4.0540577397E+00   -4.0404076945E+00   -4.0268492606E+00   -4.0133815188E+00
   -4.0000035622E+00   -3.9867144959E+00   -3.9735134369E+00   -3.9603995138E+00
   -3.9473718667E+00   -3.9344296471E+00   -3.9215720173E+00   -3.9087981508E+00
   -3.8961072316E+00   -3.8834984546E+00   -3.8709710246E+00   -3.8585241571E+00
   -3.8461570774E+00   -3.8338690208E+00   -3.8216592322E+00   -3.8095269662E+00
   -3.7974714869E+00   -3.7854920676E+00   -3.7735879907E+00   -3.7617585477E+00
   -3.7500030388E+00   -3.7383207732E+00   -3.7267110683E+00   -3.7151732503E+00
   -3.7037066536E+00   -3.6923106207E+00   -3.6809845022E+00   -3.6697276568E+00
   -3.6585394508E+00   -3.6474192583E+00   -3.6363664611E+00   -3.6253804482E+00
   -3.6144606163E+00   -3.6036063691E+00   -3.5928171175E+00   -3.5820922795E+00
   -3.5714312799E+00   -3.5608335505E+00   -3.5502985296E+00   -3.5398256623E+00
   -3.5294144002E+00   -3.5190642014E+00   -3.5087745302E+00   -3.4985448571E+00
   -3.4883746590E+00   -3.4782634186E+00   -3.4682106248E+00   -3.4582157723E+00
   -3.4482783616E+00   -3.4383978988E+00   -3.4285738960E+00   -3.4188058704E+00
   -3.4090933451E+00   -3.3994358483E+00   -3.3898329138E+00   -3.3802840803E+00
   -3.3707888921E+00   -3.3613468983E+00   -3.3519576531E+00   -3.3426207158E+00
   -3.3333356504E+00   -3.3241020260E+00   -3.3149194160E+00   -3.3057873991E+00
   -3.2967055581E+00   -3.2876734807E+00   -3.2786907590E+00   -3.2697569895E+00
   -3.2608717732E+00   -3.2520347153E+00   -3.2432454253E+00   -3.2345035170E+00
   -3.2258086083E+00   -3.2171603211E+00   -3.2085582815E+00   -3.2000021195E+00
   -3.1914914691E+00   -3.1830259681E+00   -3.1746052581E+00   -3.1662289846E+00
   -3.1578967969E+00   -3.1496083477E+00   -3.1413632936E+00   -3.1331612946E+00
   -3.1250020145E+00   -3.1168851202E+00   -3.1088102825E+00   -3.1007771752E+00
   -3.0927854758E+00   -3.0848348648E+00   -3.0769250262E+00   -3.0690556472E+00
   -3.0612264181E+00   -3.0534370325E+00   -3.0456871869E+00   -3.0379765812E+00
   -3.0303049179E+00   -3.0226719028E+00   -3.0150772446E+00   -3.0075206549E+00
   -3.0000018482E+00   -2.9925205418E+00   -2.9850764559E+00   -2.9776693134E+00
   -2.9702988399E+00   -2.9629647639E+00   -2.9556668163E+00   -2.9484047310E+00
   -2.9411782441E+00   -2.9339870946E+00   -2.9268310239E+00   -2.9197097760E+00
   -2.9126230972E+00   -2.9055707366E+00   -2.8985524453E+00   -2.8915679772E+00
   -2.8846170883E+00   -2.8776995370E+00   -2.8708150840E+00   -2.8639634924E+00
   -2.8571445275E+00   -2.8503579568E+00   -2.8436035499E+00   -2.8368810787E+00
   -2.8301903174E+00   -2.8235310420E+00   -2.8169030309E+00   -2.8103060643E+00
   -2.8037399247E+00   -2.7972043964E+00   -2.7906992660E+00   -2.7842243219E+00
   -2.7777793543E+00   -2.7713641557E+00   -2.7649785203E+00   -2.7586222441E+00