<UPF version="2.0.1">
  <PP_INFO>

 This pseudopotential file has been produced using the code
 ONCVPSP  (Optimized Norm-Conservinng Vanderbilt PSeudopotential)
 scalar-relativistic version 4.0.1 06/04/2019 by D. R. Hamann
 The code is available through a link at URL www.mat-simresearch.com.
 Documentation with the package provides a full discription of the
 input data below.


 While it is not required under the terms of the GNU GPL, it is
 suggested that you cite D. R. Hamann, Phys. Rev. B 88, 085117 (2013)
 in any publication using these pseudopotentials.

    <PP_INPUTFILE>
# ATOM AND REFERENCE CONFIGURATION
# atsym  z   nc   nv     iexc    psfile
  O  8.00    1    2       3      upf
#
#   n    l    f        energy (Ha)
    1    0    2.00
    2    0    2.00
    2    1    4.00
#
# PSEUDOPOTENTIAL AND OPTIMIZATION
# lmax
    1
#
#   l,   rc,      ep,       ncon, nbas, qcut
    0   1.28705   0.00000    5    8   8.98916
    1   1.46383   0.00000    5    8   9.14990
#
# LOCAL POTENTIAL
# lloc, lpopt,  rc(5),   dvloc0
    4    5   0.89909      0.00000
#
# VANDERBILT-KLEINMAN-BYLANDER PROJECTORs
# l, nproj, debl
    0    2   1.51851
    1    2   1.53631
#
# MODEL CORE CHARGE
# icmod, fcfact, rcfact
    0   0.00000   0.00000
#
# LOG DERIVATIVE ANALYSIS
# epsh1, epsh2, depsh
   -5.00    3.00    0.02
#
# OUTPUT GRID
# rlmax, drl
    6.00    0.01
#
# TEST CONFIGURATIONS
# ncnf
    0
# nvcnf
#   n    l    f
    </PP_INPUTFILE>
  </PP_INFO>
  <!--                               -->
  <!-- END OF HUMAN READABLE SECTION -->
  <!--                               -->
    <PP_HEADER
       generated="Generated using ONCVPSP code by D. R. Hamann"
       author="anonymous"
       date="220414"
       comment=""
       element="O "
       pseudo_type="NC"
       relativistic="scalar"
       is_ultrasoft="F"
       is_paw="F"
       is_coulomb="F"
       has_so="F"
       has_wfc="F"
       has_gipaw="F"
       core_correction="F"
       functional="PZ"
       z_valence="    6.00"
       total_psenergy="  -3.13541955159E+01"
       rho_cutoff="   9.23000000000E+00"
       l_max="1"
       l_local="-1"
       mesh_size="   924"
       number_of_wfc="2"
       number_of_proj="4"/>
 <PP_MESH>
   <PP_R type="real"  size=" 924" columns="8">
    0.0000    0.0100    0.0200    0.0300    0.0400    0.0500    0.0600    0.0700
    0.0800    0.0900    0.1000    0.1100    0.1200    0.1300    0.1400    0.1500
    0.1600    0.1700    0.1800    0.1900    0.2000    0.2100    0.2200    0.2300
    0.2400    0.2500    0.2600    0.2700    0.2800    0.2900    0.3000    0.3100
    0.3200    0.3300    0.3400    0.3500    0.3600    0.3700    0.3800    0.3900
    0.4000    0.4100    0.4200    0.4300    0.4400    0.4500    0.4600    0.4700
    0.4800    0.4900    0.5000    0.5100    0.5200    0.5300    0.5400    0.5500
    0.5600    0.5700    0.5800    0.5900    0.6000    0.6100    0.6200    0.6300
    0.6400    0.6500    0.6600    0.6700    0.6800    0.6900    0.7000    0.7100
    0.7200    0.7300    0.7400    0.7500    0.7600    0.7700    0.7800    0.7900
    0.8000    0.8100    0.8200    0.8300    0.8400    0.8500    0.8600    0.8700
    0.8800    0.8900    0.9000    0.9100    0.9200    0.9300    0.9400    0.9500
    0.9600    0.9700    0.9800    0.9900    1.0000    1.0100    1.0200    1.0300
    1.0400    1.0500    1.0600    1.0700    1.0800    1.0900    1.1000    1.1100
    1.1200    1.1300    1.1400    1.1500    1.1600    1.1700    1.1800    1.1900
    1.2000    1.2100    1.2200    1.2300    1.2400    1.2500    1.2600    1.2700
    1.2800    1.2900    1.3000    1.3100    1.3200    1.3300    1.3400    1.3500
    1.3600    1.3700    1.3800    1.3900    1.4000    1.4100    1.4200    1.4300
    1.4400    1.4500    1.4600    1.4700    1.4800    1.4900    1.5000    1.5100
    1.5200    1.5300    1.5400    1.5500    1.5600    1.5700    1.5800    1.5900
    1.6000    1.6100    1.6200    1.6300    1.6400    1.6500    1.6600    1.6700
    1.6800    1.6900    1.7000    1.7100    1.7200    1.7300    1.7400    1.7500
    1.7600    1.7700    1.7800    1.7900    1.8000    1.8100    1.8200    1.8300
    1.8400    1.8500    1.8600    1.8700    1.8800    1.8900    1.9000    1.9100
    1.9200    1.9300    1.9400    1.9500    1.9600    1.9700    1.9800    1.9900
    2.0000    2.0100    2.0200    2.0300    2.0400    2.0500    2.0600    2.0700
    2.0800    2.0900    2.1000    2.1100    2.1200    2.1300    2.1400    2.1500
    2.1600    2.1700    2.1800    2.1900    2.2000    2.2100    2.2200    2.2300
    2.2400    2.2500    2.2600    2.2700    2.2800    2.2900    2.3000    2.3100
    2.3200    2.3300    2.3400    2.3500    2.3600    2.3700    2.3800    2.3900
    2.4000    2.4100    2.4200    2.4300    2.4400    2.4500    2.4600    2.4700
    2.4800    2.4900    2.5000    2.5100    2.5200    2.5300    2.5400    2.5500
    2.5600    2.5700    2.5800    2.5900    2.6000    2.6100    2.6200    2.6300
    2.6400    2.6500    2.6600    2.6700    2.6800    2.6900    2.7000    2.7100
    2.7200    2.7300    2.7400    2.7500    2.7600    2.7700    2.7800    2.7900
    2.8000    2.8100    2.8200    2.8300    2.8400    2.8500    2.8600    2.8700
    2.8800    2.8900    2.9000    2.9100    2.9200    2.9300    2.9400    2.9500
    2.9600    2.9700    2.9800    2.9900    3.0000    3.0100    3.0200    3.0300
    3.0400    3.0500    3.0600    3.0700    3.0800    3.0900    3.1000    3.1100
    3.1200    3.1300    3.1400    3.1500    3.1600    3.1700    3.1800    3.1900
    3.2000    3.2100    3.2200    3.2300    3.2400    3.2500    3.2600    3.2700
    3.2800    3.2900    3.3000    3.3100    3.3200    3.3300    3.3400    3.3500
    3.3600    3.3700    3.3800    3.3900    3.4000    3.4100    3.4200    3.4300
    3.4400    3.4500    3.4600    3.4700    3.4800    3.4900    3.5000    3.5100
    3.5200    3.5300    3.5400    3.5500    3.5600    3.5700    3.5800    3.5900
    3.6000    3.6100    3.6200    3.6300    3.6400    3.6500    3.6600    3.6700
    3.6800    3.6900    3.7000    3.7100    3.7200    3.7300    3.7400    3.7500
    3.7600    3.7700    3.7800    3.7900    3.8000    3.8100    3.8200    3.8300
    3.8400    3.8500    3.8600    3.8700    3.8800    3.8900    3.9000    3.9100
    3.9200    3.9300    3.9400    3.9500    3.9600    3.9700    3.9800    3.9900
    4.0000    4.0100    4.0200    4.0300    4.0400    4.0500    4.0600    4.0700
    4.0800    4.0900    4.1000    4.1100    4.1200    4.1300    4.1400    4.1500
    4.1600    4.1700    4.1800    4.1900    4.2000    4.2100    4.2200    4.2300
    4.2400    4.2500    4.2600    4.2700    4.2800    4.2900    4.3000    4.3100
    4.3200    4.3300    4.3400    4.3500    4.3600    4.3700    4.3800    4.3900
    4.4000    4.4100    4.4200    4.4300    4.4400    4.4500    4.4600    4.4700
    4.4800    4.4900    4.5000    4.5100    4.5200    4.5300    4.5400    4.5500
    4.5600    4.5700    4.5800    4.5900    4.6000    4.6100    4.6200    4.6300
    4.6400    4.6500    4.6600    4.6700    4.6800    4.6900    4.7000    4.7100
    4.7200    4.7300    4.7400    4.7500    4.7600    4.7700    4.7800    4.7900
    4.8000    4.8100    4.8200    4.8300    4.8400    4.8500    4.8600    4.8700
    4.8800    4.8900    4.9000    4.9100    4.9200    4.9300    4.9400    4.9500
    4.9600    4.9700    4.9800    4.9900    5.0000    5.0100    5.0200    5.0300
    5.0400    5.0500    5.0600    5.0700    5.0800    5.0900    5.1000    5.1100
    5.1200    5.1300    5.1400    5.1500    5.1600    5.1700    5.1800    5.1900
    5.2000    5.2100    5.2200    5.2300    5.2400    5.2500    5.2600    5.2700
    5.2800    5.2900    5.3000    5.3100    5.3200    5.3300    5.3400    5.3500
    5.3600    5.3700    5.3800    5.3900    5.4000    5.4100    5.4200    5.4300
    5.4400    5.4500    5.4600    5.4700    5.4800    5.4900    5.5000    5.5100
    5.5200    5.5300    5.5400    5.5500    5.5600    5.5700    5.5800    5.5900
    5.6000    5.6100    5.6200    5.6300    5.6400    5.6500    5.6600    5.6700
    5.6800    5.6900    5.7000    5.7100    5.7200    5.7300    5.7400    5.7500
    5.7600    5.7700    5.7800    5.7900    5.8000    5.8100    5.8200    5.8300
    5.8400    5.8500    5.8600    5.8700    5.8800    5.8900    5.9000    5.9100
    5.9200    5.9300    5.9400    5.9500    5.9600    5.9700    5.9800    5.9900
    6.0000    6.0100    6.0200    6.0300    6.0400    6.0500    6.0600    6.0700
    6.0800    6.0900    6.1000    6.1100    6.1200    6.1300    6.1400    6.1500
    6.1600    6.1700    6.1800    6.1900    6.2000    6.2100    6.2200    6.2300
    6.2400    6.2500    6.2600    6.2700    6.2800    6.2900    6.3000    6.3100
    6.3200    6.3300    6.3400    6.3500    6.3600    6.3700    6.3800    6.3900
    6.4000    6.4100    6.4200    6.4300    6.4400    6.4500    6.4600    6.4700
    6.4800    6.4900    6.5000    6.5100    6.5200    6.5300    6.5400    6.5500
    6.5600    6.5700    6.5800    6.5900    6.6000    6.6100    6.6200    6.6300
    6.6400    6.6500    6.6600    6.6700    6.6800    6.6900    6.7000    6.7100
    6.7200    6.7300    6.7400    6.7500    6.7600    6.7700    6.7800    6.7900
    6.8000    6.8100    6.8200    6.8300    6.8400    6.8500    6.8600    6.8700
    6.8800    6.8900    6.9000    6.9100    6.9200    6.9300    6.9400    6.9500
    6.9600    6.9700    6.9800    6.9900    7.0000    7.0100    7.0200    7.0300
    7.0400    7.0500    7.0600    7.0700    7.0800    7.0900    7.1000    7.1100
    7.1200    7.1300    7.1400    7.1500    7.1600    7.1700    7.1800    7.1900
    7.2000    7.2100    7.2200    7.2300    7.2400    7.2500    7.2600    7.2700
    7.2800    7.2900    7.3000    7.3100    7.3200    7.3300    7.3400    7.3500
    7.3600    7.3700    7.3800    7.3900    7.4000    7.4100    7.4200    7.4300
    7.4400    7.4500    7.4600    7.4700    7.4800    7.4900    7.5000    7.5100
    7.5200    7.5300    7.5400    7.5500    7.5600    7.5700    7.5800    7.5900
    7.6000    7.6100    7.6200    7.6300    7.6400    7.6500    7.6600    7.6700
    7.6800    7.6900    7.7000    7.7100    7.7200    7.7300    7.7400    7.7500
    7.7600    7.7700    7.7800    7.7900    7.8000    7.8100    7.8200    7.8300
    7.8400    7.8500    7.8600    7.8700    7.8800    7.8900    7.9000    7.9100
    7.9200    7.9300    7.9400    7.9500    7.9600    7.9700    7.9800    7.9900
    8.0000    8.0100    8.0200    8.0300    8.0400    8.0500    8.0600    8.0700
    8.0800    8.0900    8.1000    8.1100    8.1200    8.1300    8.1400    8.1500
    8.1600    8.1700    8.1800    8.1900    8.2000    8.2100    8.2200    8.2300
    8.2400    8.2500    8.2600    8.2700    8.2800    8.2900    8.3000    8.3100
    8.3200    8.3300    8.3400    8.3500    8.3600    8.3700    8.3800    8.3900
    8.4000    8.4100    8.4200    8.4300    8.4400    8.4500    8.4600    8.4700
    8.4800    8.4900    8.5000    8.5100    8.5200    8.5300    8.5400    8.5500
    8.5600    8.5700    8.5800    8.5900    8.6000    8.6100    8.6200    8.6300
    8.6400    8.6500    8.6600    8.6700    8.6800    8.6900    8.7000    8.7100
    8.7200    8.7300    8.7400    8.7500    8.7600    8.7700    8.7800    8.7900
    8.8000    8.8100    8.8200    8.8300    8.8400    8.8500    8.8600    8.8700
    8.8800    8.8900    8.9000    8.9100    8.9200    8.9300    8.9400    8.9500
    8.9600    8.9700    8.9800    8.9900    9.0000    9.0100    9.0200    9.0300
    9.0400    9.0500    9.0600    9.0700    9.0800    9.0900    9.1000    9.1100
    9.1200    9.1300    9.1400    9.1500    9.1600    9.1700    9.1800    9.1900
    9.2000    9.2100    9.2200    9.2300
   </PP_R>
   <PP_RAB type="real"  size=" 924" columns="8">
    0.0100    0.0100    0.0100    0.0100    0.0100    0.0100    0.0100    0.0100
    0.0100    0.0100    0.0100    0.0100    0.0100    0.0100    0.0100    0.0100
    0.0100    0.0100    0.0100    0.0100    0.0100    0.0100    0.0100    0.0100
    0.0100    0.0100    0.0100    0.0100    0.0100    0.0100    0.0100    0.0100
    0.0100    0.0100    0.0100    0.0100    0.0100    0.0100    0.0100    0.0100
    0.0100    0.0100    0.0100    0.0100    0.0100    0.0100    0.0100    0.0100
    0.0100    0.0100    0.0100    0.0100    0.0100    0.0100    0.0100    0.0100
    0.0100    0.0100    0.0100    0.0100    0.0100    0.0100    0.0100    0.0100
    0.0100    0.0100    0.0100    0.0100    0.0100    0.0100    0.0100    0.0100
    0.0100    0.0100    0.0100    0.0100    0.0100    0.0100    0.0100    0.0100
    0.0100    0.0100    0.0100    0.0100    0.0100    0.0100    0.0100    0.0100
    0.0100    0.0100    0.0100    0.0100    0.0100    0.0100    0.0100    0.0100
    0.0100    0.0100    0.0100    0.0100    0.0100    0.0100    0.0100    0.0100
    0.0100    0.0100    0.0100    0.0100    0.0100    0.0100    0.0100    0.0100
    0.0100    0.0100    0.0100    0.0100    0.0100    0.0100    0.0100    0.0100
    0.0100    0.0100    0.0100    0.0100    0.0100    0.0100    0.0100    0.0100
    0.0100    0.0100    0.0100    0.0100    0.0100    0.0100    0.0100    0.0100
    0.0100    0.0100    0.0100    0.0100    0.0100    0.0100    0.0100    0.0100
    0.0100    0.0100    0.0100    0.0100    0.0100    0.0100    0.0100    0.0100
    0.0100    0.0100    0.0100    0.0100    0.0100    0.0100    0.0100    0.0100
    0.0100    0.0100    0.0100    0.0100    0.0100    0.0100    0.0100    0.0100
    0.0100    0.0100    0.0100    0.0100    0.0100    0.0100    0.0100    0.0100
    0.0100    0.0100    0.0100    0.0100    0.0100    0.0100    0.0100    0.0100
    0.0100    0.0100    0.0100    0.0100    0.0100    0.0100    0.0100    0.0100
    0.0100    0.0100    0.0100    0.0100    0.0100    0.0100    0.0100    0.0100
    0.0100    0.0100    0.0100    0.0100    0.0100    0.0100    0.0100    0.0100
    0.0100    0.0100    0.0100    0.0100    0.0100    0.0100    0.0100    0.0100
    0.0100    0.0100    0.0100    0.0100    0.0100    0.0100    0.0100    0.0100
    0.0100    0.0100    0.0100    0.0100    0.0100    0.0100    0.0100    0.0100
    0.0100    0.0100    0.0100    0.0100    0.0100    0.0100    0.0100    0.0100
    0.0100    0.0100    0.0100    0.0100    0.0100    0.0100    0.0100    0.0100
    0.0100    0.0100    0.0100    0.0100    0.0100    0.0100    0.0100    0.0100
    0.0100    0.0100    0.0100    0.0100    0.0100    0.0100    0.0100    0.0100
    0.0100    0.0100    0.0100    0.0100    0.0100    0.0100    0.0100    0.0100
    0.0100    0.0100    0.0100    0.0100    0.0100    0.0100    0.0100    0.0100
    0.0100    0.0100    0.0100    0.0100    0.0100    0.0100    0.0100    0.0100
    0.0100    0.0100    0.0100    0.0100    0.0100    0.0100    0.0100    0.0100
    0.0100    0.0100    0.0100    0.0100    0.0100    0.0100    0.0100    0.0100
    0.0100    0.0100    0.0100    0.0100    0.0100    0.0100    0.0100    0.0100
    0.0100    0.0100    0.0100    0.0100    0.0100    0.0100    0.0100    0.0100
    0.0100    0.0100    0.0100    0.0100    0.0100    0.0100    0.0100    0.0100
    0.0100    0.0100    0.0100    0.0100    0.0100    0.0100    0.0100    0.0100
    0.0100    0.0100    0.0100    0.0100    0.0100    0.0100    0.0100    0.0100
    0.0100    0.0100    0.0100    0.0100    0.0100    0.0100    0.0100    0.0100
    0.0100    0.0100    0.0100    0.0100    0.0100    0.0100    0.0100    0.0100
    0.0100    0.0100    0.0100    0.0100    0.0100    0.0100    0.0100    0.0100
    0.0100    0.0100    0.0100    0.0100    0.0100    0.0100    0.0100    0.0100
    0.0100    0.0100    0.0100    0.0100    0.0100    0.0100    0.0100    0.0100
    0.0100    0.0100    0.0100    0.0100    0.0100    0.0100    0.0100    0.0100
    0.0100    0.0100    0.0100    0.0100    0.0100    0.0100    0.0100    0.0100
    0.0100    0.0100    0.0100    0.0100    0.0100    0.0100    0.0100    0.0100
    0.0100    0.0100    0.0100    0.0100    0.0100    0.0100    0.0100    0.0100
    0.0100    0.0100    0.0100    0.0100    0.0100    0.0100    0.0100    0.0100
    0.0100    0.0100    0.0100    0.0100    0.0100    0.0100    0.0100    0.0100
    0.0100    0.0100    0.0100    0.0100    0.0100    0.0100    0.0100    0.0100
    0.0100    0.0100    0.0100    0.0100    0.0100    0.0100    0.0100    0.0100
    0.0100    0.0100    0.0100    0.0100    0.0100    0.0100    0.0100    0.0100
    0.0100    0.0100    0.0100    0.0100    0.0100    0.0100    0.0100    0.0100
    0.0100    0.0100    0.0100    0.0100    0.0100    0.0100    0.0100    0.0100
    0.0100    0.0100    0.0100    0.0100    0.0100    0.0100    0.0100    0.0100
    0.0100    0.0100    0.0100    0.0100    0.0100    0.0100    0.0100    0.0100
    0.0100    0.0100    0.0100    0.0100    0.0100    0.0100    0.0100    0.0100
    0.0100    0.0100    0.0100    0.0100    0.0100    0.0100    0.0100    0.0100
    0.0100    0.0100    0.0100    0.0100    0.0100    0.0100    0.0100    0.0100
    0.0100    0.0100    0.0100    0.0100    0.0100    0.0100    0.0100    0.0100
    0.0100    0.0100    0.0100    0.0100    0.0100    0.0100    0.0100    0.0100
    0.0100    0.0100    0.0100    0.0100    0.0100    0.0100    0.0100    0.0100
    0.0100    0.0100    0.0100    0.0100    0.0100    0.0100    0.0100    0.0100
    0.0100    0.0100    0.0100    0.0100    0.0100    0.0100    0.0100    0.0100
    0.0100    0.0100    0.0100    0.0100    0.0100    0.0100    0.0100    0.0100
    0.0100    0.0100    0.0100    0.0100    0.0100    0.0100    0.0100    0.0100
    0.0100    0.0100    0.0100    0.0100    0.0100    0.0100    0.0100    0.0100
    0.0100    0.0100    0.0100    0.0100    0.0100    0.0100    0.0100    0.0100
    0.0100    0.0100    0.0100    0.0100    0.0100    0.0100    0.0100    0.0100
    0.0100    0.0100    0.0100    0.0100    0.0100    0.0100    0.0100    0.0100
    0.0100    0.0100    0.0100    0.0100    0.0100    0.0100    0.0100    0.0100
    0.0100    0.0100    0.0100    0.0100    0.0100    0.0100    0.0100    0.0100
    0.0100    0.0100    0.0100    0.0100    0.0100    0.0100    0.0100    0.0100
    0.0100    0.0100    0.0100    0.0100    0.0100    0.0100    0.0100    0.0100
    0.0100    0.0100    0.0100    0.0100    0.0100    0.0100    0.0100    0.0100
    0.0100    0.0100    0.0100    0.0100    0.0100    0.0100    0.0100    0.0100
    0.0100    0.0100    0.0100    0.0100    0.0100    0.0100    0.0100    0.0100
    0.0100    0.0100    0.0100    0.0100    0.0100    0.0100    0.0100    0.0100
    0.0100    0.0100    0.0100    0.0100    0.0100    0.0100    0.0100    0.0100
    0.0100    0.0100    0.0100    0.0100    0.0100    0.0100    0.0100    0.0100
    0.0100    0.0100    0.0100    0.0100    0.0100    0.0100    0.0100    0.0100
    0.0100    0.0100    0.0100    0.0100    0.0100    0.0100    0.0100    0.0100
    0.0100    0.0100    0.0100    0.0100    0.0100    0.0100    0.0100    0.0100
    0.0100    0.0100    0.0100    0.0100    0.0100    0.0100    0.0100    0.0100
    0.0100    0.0100    0.0100    0.0100    0.0100    0.0100    0.0100    0.0100
    0.0100    0.0100    0.0100    0.0100    0.0100    0.0100    0.0100    0.0100
    0.0100    0.0100    0.0100    0.0100    0.0100    0.0100    0.0100    0.0100
    0.0100    0.0100    0.0100    0.0100    0.0100    0.0100    0.0100    0.0100
    0.0100    0.0100    0.0100    0.0100    0.0100    0.0100    0.0100    0.0100
    0.0100    0.0100    0.0100    0.0100    0.0100    0.0100    0.0100    0.0100
    0.0100    0.0100    0.0100    0.0100    0.0100    0.0100    0.0100    0.0100
    0.0100    0.0100    0.0100    0.0100    0.0100    0.0100    0.0100    0.0100
    0.0100    0.0100    0.0100    0.0100    0.0100    0.0100    0.0100    0.0100
    0.0100    0.0100    0.0100    0.0100    0.0100    0.0100    0.0100    0.0100
    0.0100    0.0100    0.0100    0.0100    0.0100    0.0100    0.0100    0.0100
    0.0100    0.0100    0.0100    0.0100    0.0100    0.0100    0.0100    0.0100
    0.0100    0.0100    0.0100    0.0100    0.0100    0.0100    0.0100    0.0100
    0.0100    0.0100    0.0100    0.0100    0.0100    0.0100    0.0100    0.0100
    0.0100    0.0100    0.0100    0.0100    0.0100    0.0100    0.0100    0.0100
    0.0100    0.0100    0.0100    0.0100    0.0100    0.0100    0.0100    0.0100
    0.0100    0.0100    0.0100    0.0100    0.0100    0.0100    0.0100    0.0100
    0.0100    0.0100    0.0100    0.0100    0.0100    0.0100    0.0100    0.0100
    0.0100    0.0100    0.0100    0.0100    0.0100    0.0100    0.0100    0.0100
    0.0100    0.0100    0.0100    0.0100    0.0100    0.0100    0.0100    0.0100
    0.0100    0.0100    0.0100    0.0100    0.0100    0.0100    0.0100    0.0100
    0.0100    0.0100    0.0100    0.0100    0.0100    0.0100    0.0100    0.0100
    0.0100    0.0100    0.0100    0.0100    0.0100    0.0100    0.0100    0.0100
    0.0100    0.0100    0.0100    0.0100    0.0100    0.0100    0.0100    0.0100
    0.0100    0.0100    0.0100    0.0100    0.0100    0.0100    0.0100    0.0100
    0.0100    0.0100    0.0100    0.0100    0.0100    0.0100    0.0100    0.0100
    0.0100    0.0100    0.0100    0.0100
   </PP_RAB>
 </PP_MESH>
  <PP_LOCAL type="real"  size=" 924" columns="4">
   -2.9605703366E+01   -2.9600737509E+01   -2.9585873719E+01   -2.9561228118E+01
   -2.9526982561E+01   -2.9483374694E+01   -2.9430684115E+01   -2.9369218126E+01
   -2.9299329756E+01   -2.9221196458E+01   -2.9135246449E+01   -2.9041788588E+01
   -2.8941116261E+01   -2.8833505331E+01   -2.8719213544E+01   -2.8598480968E+01
   -2.8471531122E+01   -2.8338572509E+01   -2.8199800355E+01   -2.8055398401E+01
   -2.7905540658E+01   -2.7750393061E+01   -2.7590114992E+01   -2.7424860661E+01
   -2.7254780327E+01   -2.7080021387E+01   -2.6900729321E+01   -2.6717048514E+01
   -2.6529122965E+01   -2.6337096890E+01   -2.6141115242E+01   -2.5941324137E+01
   -2.5737871216E+01   -2.5530905935E+01   -2.5320579803E+01   -2.5107046560E+01
   -2.4890462309E+01   -2.4670985608E+01   -2.4448777519E+01   -2.4224001616E+01
   -2.3996823973E+01   -2.3767413104E+01   -2.3535939888E+01   -2.3302577460E+01
   -2.3067501078E+01   -2.2830887970E+01   -2.2592917155E+01   -2.2353769243E+01
   -2.2113626223E+01   -2.1872671225E+01   -2.1631088265E+01   -2.1389061985E+01
   -2.1146777363E+01   -2.0904419419E+01   -2.0662172906E+01   -2.0420221989E+01
   -2.0178749909E+01   -1.9937938645E+01   -1.9697968556E+01   -1.9459018020E+01
   -1.9221263069E+01   -1.8984877005E+01   -1.8750030019E+01   -1.8516888801E+01
   -1.8285616143E+01   -1.8056370537E+01   -1.7829305769E+01   -1.7604570511E+01
   -1.7382307902E+01   -1.7162655138E+01   -1.6945743045E+01   -1.6731695660E+01
   -1.6520629803E+01   -1.6312654648E+01   -1.6107871298E+01   -1.5906372348E+01
   -1.5708241452E+01   -1.5513552888E+01   -1.5322371120E+01   -1.5134750358E+01
   -1.4950734117E+01   -1.4770354772E+01   -1.4593633115E+01   -1.4420577900E+01
   -1.4251185402E+01   -1.4085438953E+01   -1.3923308492E+01   -1.3764750100E+01
   -1.3609705539E+01   -1.3458101783E+01   -1.3309850544E+01   -1.3164848534E+01
   -1.3022986366E+01   -1.2884158533E+01   -1.2748264225E+01   -1.2615207106E+01
   -1.2484895091E+01   -1.2357240144E+01   -1.2232158087E+01   -1.2109568421E+01
   -1.1989394147E+01   -1.1871561612E+01   -1.1756000344E+01   -1.1642642907E+01
   -1.1531424757E+01   -1.1422284106E+01   -1.1315161783E+01   -1.1210001114E+01
   -1.1106747791E+01   -1.1005349758E+01   -1.0905757090E+01   -1.0807921888E+01
   -1.0711798162E+01   -1.0617341734E+01   -1.0524509615E+01   -1.0433267812E+01
   -1.0343564289E+01   -1.0255367337E+01   -1.0168640526E+01   -1.0083348728E+01
   -9.9994578317E+00   -9.9169348600E+00   -9.8357478950E+00   -9.7558660168E+00
   -9.6772592467E+00   -9.5998984958E+00   -9.5237555177E+00   -9.4488028656E+00
   -9.3750138544E+00   -9.3023625263E+00   -9.2308236212E+00   -9.1603725504E+00
   -9.0909853729E+00   -9.0226387727E+00   -8.9553100396E+00   -8.8889770511E+00
   -8.8236182563E+00   -8.7592126612E+00   -8.6957398153E+00   -8.6331797993E+00
   -8.5715132131E+00   -8.5107211650E+00   -8.4507852610E+00   -8.3916875941E+00
   -8.3334107340E+00   -8.2759377159E+00   -8.2192520298E+00   -8.1633376095E+00
   -8.1081788200E+00   -8.0537604459E+00   -8.0000676776E+00   -7.9470860977E+00
   -7.8948016687E+00   -7.8432007197E+00   -7.7922699353E+00   -7.7419963437E+00
   -7.6923673057E+00   -7.6433705042E+00   -7.5949939340E+00   -7.5472258921E+00
   -7.5000549679E+00   -7.4534700344E+00   -7.4074602393E+00   -7.3620149969E+00
   -7.3171239795E+00   -7.2727771097E+00   -7.2289645533E+00   -7.1856767113E+00
   -7.1429042134E+00   -7.1006379113E+00   -7.0588688718E+00   -7.0175883705E+00
   -6.9767878861E+00   -6.9364590945E+00   -6.8965938626E+00   -6.8571842435E+00
   -6.8182224709E+00   -6.7797009537E+00   -6.7416122719E+00   -6.7039491708E+00
   -6.6667045574E+00   -6.6298714952E+00   -6.5934432000E+00   -6.5574130363E+00
   -6.5217745126E+00   -6.4865212777E+00   -6.4516471172E+00   -6.4171459495E+00
   -6.3830118224E+00   -6.3492389097E+00   -6.3158215079E+00   -6.2827540330E+00
   -6.2500310171E+00   -6.2176471059E+00   -6.1855970552E+00   -6.1538757288E+00
   -6.1224780950E+00   -6.0913992242E+00   -6.0606342868E+00   -6.0301785498E+00
   -6.0000273752E+00   -5.9701762172E+00   -5.9406206199E+00   -5.9113562154E+00
   -5.8823787214E+00   -5.8536839390E+00   -5.8252677510E+00   -5.7971261197E+00
   -5.7692550851E+00   -5.7416507629E+00   -5.7143093429E+00   -5.6872270870E+00
   -5.6604003278E+00   -5.6338254666E+00   -5.6074989721E+00   -5.5814173786E+00
   -5.5555772846E+00   -5.5299753515E+00   -5.5046083016E+00   -5.4794729174E+00
   -5.4545660396E+00   -5.4298845664E+00   -5.4054254516E+00   -5.3811857039E+00
   -5.3571623853E+00   -5.3333526099E+00   -5.3097535430E+00   -5.2863624000E+00
   -5.2631764449E+00   -5.2401929897E+00   -5.2174093929E+00   -5.1948230590E+00
   -5.1724314371E+00   -5.1502320201E+00   -5.1282223439E+00   -5.1063999861E+00
   -5.0847625657E+00   -5.0633077414E+00   -5.0420332118E+00   -5.0209367135E+00
   -5.0000160213E+00   -4.9792689466E+00   -4.9586933370E+00   -4.9382870758E+00
   -4.9180480807E+00   -4.8979743035E+00   -4.8780637293E+00   -4.8583143760E+00
   -4.8387242931E+00   -4.8192915618E+00   -4.8000142938E+00   -4.7808906310E+00
   -4.7619187447E+00   -4.7430968351E+00   -4.7244231308E+00   -4.7058958883E+00
   -4.6875133912E+00   -4.6692739497E+00   -4.6511759005E+00   -4.6332176057E+00
   -4.6153974528E+00   -4.5977138540E+00   -4.5801652456E+00   -4.5627500877E+00
   -4.5454668640E+00   -4.5283140806E+00   -4.5112902666E+00   -4.4943939729E+00
   -4.4776237718E+00   -4.4609782571E+00   -4.4444560436E+00   -4.4280557661E+00
   -4.4117760797E+00   -4.3956156593E+00   -4.3795731991E+00   -4.3636474121E+00
   -4.3478370302E+00   -4.3321408034E+00   -4.3165575000E+00   -4.3010859056E+00
   -4.2857248233E+00   -4.2704730733E+00   -4.2553294924E+00   -4.2402929340E+00
   -4.2253622676E+00   -4.2105363784E+00   -4.1958141675E+00   -4.1811945510E+00
   -4.1666764602E+00   -4.1522588413E+00   -4.1379406549E+00   -4.1237208758E+00
   -4.1095984930E+00   -4.0955725094E+00   -4.0816419411E+00   -4.0678058179E+00
   -4.0540631826E+00   -4.0404130908E+00   -4.0268546109E+00   -4.0133868236E+00
   -4.0000088221E+00   -3.9867197114E+00   -3.9735186086E+00   -3.9604046422E+00
   -3.9473769524E+00   -3.9344346905E+00   -3.9215770190E+00   -3.9088031112E+00
   -3.8961121514E+00   -3.8835033340E+00   -3.8709758643E+00   -3.8585289575E+00
   -3.8461618389E+00   -3.8338737439E+00   -3.8216639173E+00   -3.8095316138E+00
   -3.7974760974E+00   -3.7854966414E+00   -3.7735925282E+00   -3.7617630493E+00
   -3.7500075050E+00   -3.7383252043E+00   -3.7267154648E+00   -3.7151776125E+00
   -3.7037109818E+00   -3.6923149154E+00   -3.6809887637E+00   -3.6697318854E+00
   -3.6585436470E+00   -3.6474234224E+00   -3.6363705933E+00   -3.6253845491E+00
   -3.6144646860E+00   -3.6036104080E+00   -3.5928211260E+00   -3.5820962578E+00
   -3.5714352283E+00   -3.5608374694E+00   -3.5503024192E+00   -3.5398295230E+00
   -3.5294182323E+00   -3.5190680052E+00   -3.5087783058E+00   -3.4985486050E+00
   -3.4883783794E+00   -3.4782671118E+00   -3.4682142910E+00   -3.4582194118E+00
   -3.4482819746E+00   -3.4384014857E+00   -3.4285774569E+00   -3.4188094057E+00
   -3.4090968549E+00   -3.3994393330E+00   -3.3898363735E+00   -3.3802875153E+00
   -3.3707923026E+00   -3.3613502846E+00   -3.3519610154E+00   -3.3426240543E+00
   -3.3333389654E+00   -3.3241053175E+00   -3.3149226844E+00   -3.3057906446E+00
   -3.2967087809E+00   -3.2876766810E+00   -3.2786939370E+00   -3.2697601454E+00
   -3.2608749071E+00   -3.2520378275E+00   -3.2432485160E+00   -3.2345065864E+00
   -3.2258116566E+00   -3.2171633485E+00   -3.2085612881E+00   -3.2000051055E+00
   -3.1914944347E+00   -3.1830289134E+00   -3.1746081834E+00   -3.1662318901E+00
   -3.1578996826E+00   -3.1496112139E+00   -3.1413661404E+00   -3.1331641223E+00
   -3.1250048231E+00   -3.1168879100E+00   -3.1088130535E+00   -3.1007799277E+00
   -3.0927882098E+00   -3.0848375806E+00   -3.0769277239E+00   -3.0690583269E+00
   -3.0612290800E+00   -3.0534396768E+00   -3.0456898137E+00   -3.0379791905E+00
   -3.0303075100E+00   -3.0226744778E+00   -3.0150798027E+00   -3.0075231962E+00
   -3.0000043728E+00   -2.9925230499E+00   -2.9850789476E+00   -2.9776717888E+00
   -2.9703012991E+00   -2.9629672071E+00   -2.9556692436E+00   -2.9484071425E+00
   -2.9411806400E+00   -2.9339894749E+00   -2.9268333888E+00   -2.9197121256E+00
   -2.9126254317E+00   -2.9055730560E+00   -2.8985547498E+00   -2.8915702668E+00
   -2.8846193632E+00   -2.8777017973E+00   -2.8708173299E+00   -2.8639657239E+00
   -2.8571467447E+00   -2.8503601598E+00   -2.8436057389E+00   -2.8368832538E+00
   -2.8301924786E+00   -2.8235331895E+00   -2.8169051647E+00   -2.8103081846E+00
   -2.8037420315E+00   -2.7972064899E+00   -2.7907013463E+00   -2.7842263890E+00
   -2.7777814084E+00   -2.7713661969E+00   -2.7649805486E+00   -2.7586242596E+00