<UPF version="2.0.1">
  <PP_INFO>

 This pseudopotential file has been produced using the code
 ONCVPSP  (Optimized Norm-Conservinng Vanderbilt PSeudopotential)
 scalar-relativistic version 4.0.1 06/04/2019 by D. R. Hamann
 The code is available through a link at URL www.mat-simresearch.com.
 Documentation with the package provides a full discription of the
 input data below.


 While it is not required under the terms of the GNU GPL, it is
 suggested that you cite D. R. Hamann, Phys. Rev. B 88, 085117 (2013)
 in any publication using these pseudopotentials.

    <PP_INPUTFILE>
# ATOM AND REFERENCE CONFIGURATION
# atsym  z   nc   nv     iexc    psfile
  Ar 18.00    3    2       3      upf
#
#   n    l    f        energy (Ha)
    1    0    2.00
    2    0    2.00
    2    1    6.00
    3    0    2.00
    3    1    6.00
#
# PSEUDOPOTENTIAL AND OPTIMIZATION
# lmax
    2
#
#   l,   rc,      ep,       ncon, nbas, qcut
    0   1.55000  -0.89000    4    8   8.20000
    1   1.55000  -0.38000    4    8   8.20000
    2   1.55000   0.10000    4    8   8.20000
#
# LOCAL POTENTIAL
# lloc, lpopt,  rc(5),   dvloc0
    4    5   1.50000      0.00000
#
# VANDERBILT-KLEINMAN-BYLANDER PROJECTORs
# l, nproj, debl
    0    2   1.50000
    1    2   1.50000
    2    2   1.00000
#
# MODEL CORE CHARGE
# icmod, fcfact, rcfact
    3   7.00000   1.25000
#
# LOG DERIVATIVE ANALYSIS
# epsh1, epsh2, depsh
  -12.00   12.00    0.02
#
# OUTPUT GRID
# rlmax, drl
    4.00    0.01
#
# TEST CONFIGURATIONS
# ncnf
    0
# nvcnf
#   n    l    f
    </PP_INPUTFILE>
  </PP_INFO>
  <!--                               -->
  <!-- END OF HUMAN READABLE SECTION -->
  <!--                               -->
    <PP_HEADER
       generated="Generated using ONCVPSP code by D. R. Hamann"
       author="anonymous"
       date="220414"
       comment=""
       element="Ar"
       pseudo_type="NC"
       relativistic="scalar"
       is_ultrasoft="F"
       is_paw="F"
       is_coulomb="F"
       has_so="F"
       has_wfc="F"
       has_gipaw="F"
       core_correction="T"
       functional="PZ"
       z_valence="    8.00"
       total_psenergy="  -4.23863394889E+01"
       rho_cutoff="   9.27000000000E+00"
       l_max="2"
       l_local="-1"
       mesh_size="   928"
       number_of_wfc="2"
       number_of_proj="6"/>
 <PP_MESH>
   <PP_R type="real"  size=" 928" columns="8">
    0.0000    0.0100    0.0200    0.0300    0.0400    0.0500    0.0600    0.0700
    0.0800    0.0900    0.1000    0.1100    0.1200    0.1300    0.1400    0.1500
    0.1600    0.1700    0.1800    0.1900    0.2000    0.2100    0.2200    0.2300
    0.2400    0.2500    0.2600    0.2700    0.2800    0.2900    0.3000    0.3100
    0.3200    0.3300    0.3400    0.3500    0.3600    0.3700    0.3800    0.3900
    0.4000    0.4100    0.4200    0.4300    0.4400    0.4500    0.4600    0.4700
    0.4800    0.4900    0.5000    0.5100    0.5200    0.5300    0.5400    0.5500
    0.5600    0.5700    0.5800    0.5900    0.6000    0.6100    0.6200    0.6300
    0.6400    0.6500    0.6600    0.6700    0.6800    0.6900    0.7000    0.7100
    0.7200    0.7300    0.7400    0.7500    0.7600    0.7700    0.7800    0.7900
    0.8000    0.8100    0.8200    0.8300    0.8400    0.8500    0.8600    0.8700
    0.8800    0.8900    0.9000    0.9100    0.9200    0.9300    0.9400    0.9500
    0.9600    0.9700    0.9800    0.9900    1.0000    1.0100    1.0200    1.0300
    1.0400    1.0500    1.0600    1.0700    1.0800    1.0900    1.1000    1.1100
    1.1200    1.1300    1.1400    1.1500    1.1600    1.1700    1.1800    1.1900
    1.2000    1.2100    1.2200    1.2300    1.2400    1.2500    1.2600    1.2700
    1.2800    1.2900    1.3000    1.3100    1.3200    1.3300    1.3400    1.3500
    1.3600    1.3700    1.3800    1.3900    1.4000    1.4100    1.4200    1.4300
    1.4400    1.4500    1.4600    1.4700    1.4800    1.4900    1.5000    1.5100
    1.5200    1.5300    1.5400    1.5500    1.5600    1.5700    1.5800    1.5900
    1.6000    1.6100    1.6200    1.6300    1.6400    1.6500    1.6600    1.6700
    1.6800    1.6900    1.7000    1.7100    1.7200    1.7300    1.7400    1.7500
    1.7600    1.7700    1.7800    1.7900    1.8000    1.8100    1.8200    1.8300
    1.8400    1.8500    1.8600    1.8700    1.8800    1.8900    1.9000    1.9100
    1.9200    1.9300    1.9400    1.9500    1.9600    1.9700    1.9800    1.9900
    2.0000    2.0100    2.0200    2.0300    2.0400    2.0500    2.0600    2.0700
    2.0800    2.0900    2.1000    2.1100    2.1200    2.1300    2.1400    2.1500
    2.1600    2.1700    2.1800    2.1900    2.2000    2.2100    2.2200    2.2300
    2.2400    2.2500    2.2600    2.2700    2.2800    2.2900    2.3000    2.3100
    2.3200    2.3300    2.3400    2.3500    2.3600    2.3700    2.3800    2.3900
    2.4000    2.4100    2.4200    2.4300    2.4400    2.4500    2.4600    2.4700
    2.4800    2.4900    2.5000    2.5100    2.5200    2.5300    2.5400    2.5500
    2.5600    2.5700    2.5800    2.5900    2.6000    2.6100    2.6200    2.6300
    2.6400    2.6500    2.6600    2.6700    2.6800    2.6900    2.7000    2.7100
    2.7200    2.7300    2.7400    2.7500    2.7600    2.7700    2.7800    2.7900
    2.8000    2.8100    2.8200    2.8300    2.8400    2.8500    2.8600    2.8700
    2.8800    2.8900    2.9000    2.9100    2.9200    2.9300    2.9400    2.9500
    2.9600    2.9700    2.9800    2.9900    3.0000    3.0100    3.0200    3.0300
    3.0400    3.0500    3.0600    3.0700    3.0800    3.0900    3.1000    3.1100
    3.1200    3.1300    3.1400    3.1500    3.1600    3.1700    3.1800    3.1900
    3.2000    3.2100    3.2200    3.2300    3.2400    3.2500    3.2600    3.2700
    3.2800    3.2900    3.3000    3.3100    3.3200    3.3300    3.3400    3.3500
    3.3600    3.3700    3.3800    3.3900    3.4000    3.4100    3.4200    3.4300
    3.4400    3.4500    3.4600    3.4700    3.4800    3.4900    3.5000    3.5100
    3.5200    3.5300    3.5400    3.5500    3.5600    3.5700    3.5800    3.5900
    3.6000    3.6100    3.6200    3.6300    3.6400    3.6500    3.6600    3.6700
    3.6800    3.6900    3.7000    3.7100    3.7200    3.7300    3.7400    3.7500
    3.7600    3.7700    3.7800    3.7900    3.8000    3.8100    3.8200    3.8300
    3.8400    3.8500    3.8600    3.8700    3.8800    3.8900    3.9000    3.9100
    3.9200    3.9300    3.9400    3.9500    3.9600    3.9700    3.9800    3.9900
    4.0000    4.0100    4.0200    4.0300    4.0400    4.0500    4.0600    4.0700
    4.0800    4.0900    4.1000    4.1100    4.1200    4.1300    4.1400    4.1500
    4.1600    4.1700    4.1800    4.1900    4.2000    4.2100    4.2200    4.2300
    4.2400    4.2500    4.2600    4.2700    4.2800    4.2900    4.3000    4.3100
    4.3200    4.3300    4.3400    4.3500    4.3600    4.3700    4.3800    4.3900
    4.4000    4.4100    4.4200    4.4300    4.4400    4.4500    4.4600    4.4700
    4.4800    4.4900    4.5000    4.5100    4.5200    4.5300    4.5400    4.5500
    4.5600    4.5700    4.5800    4.5900    4.6000    4.6100    4.6200    4.6300
    4.6400    4.6500    4.6600    4.6700    4.6800    4.6900    4.7000    4.7100
    4.7200    4.7300    4.7400    4.7500    4.7600    4.7700    4.7800    4.7900
    4.8000    4.8100    4.8200    4.8300    4.8400    4.8500    4.8600    4.8700
    4.8800    4.8900    4.9000    4.9100    4.9200    4.9300    4.9400    4.9500
    4.9600    4.9700    4.9800    4.9900    5.0000    5.0100    5.0200    5.0300
    5.0400    5.0500    5.0600    5.0700    5.0800    5.0900    5.1000    5.1100
    5.1200    5.1300    5.1400    5.1500    5.1600    5.1700    5.1800    5.1900
    5.2000    5.2100    5.2200    5.2300    5.2400    5.2500    5.2600    5.2700
    5.2800    5.2900    5.3000    5.3100    5.3200    5.3300    5.3400    5.3500
    5.3600    5.3700    5.3800    5.3900    5.4000    5.4100    5.4200    5.4300
    5.4400    5.4500    5.4600    5.4700    5.4800    5.4900    5.5000    5.5100
    5.5200    5.5300    5.5400    5.5500    5.5600    5.5700    5.5800    5.5900
    5.6000    5.6100    5.6200    5.6300    5.6400    5.6500    5.6600    5.6700
    5.6800    5.6900    5.7000    5.7100    5.7200    5.7300    5.7400    5.7500
    5.7600    5.7700    5.7800    5.7900    5.8000    5.8100    5.8200    5.8300
    5.8400    5.8500    5.8600    5.8700    5.8800    5.8900    5.9000    5.9100
    5.9200    5.9300    5.9400    5.9500    5.9600    5.9700    5.9800    5.9900
    6.0000    6.0100    6.0200    6.0300    6.0400    6.0500    6.0600    6.0700
    6.0800    6.0900    6.1000    6.1100    6.1200    6.1300    6.1400    6.1500
    6.1600    6.1700    6.1800    6.1900    6.2000    6.2100    6.2200    6.2300
    6.2400    6.2500    6.2600    6.2700    6.2800    6.2900    6.3000    6.3100
    6.3200    6.3300    6.3400    6.3500    6.3600    6.3700    6.3800    6.3900
    6.4000    6.4100    6.4200    6.4300    6.4400    6.4500    6.4600    6.4700
    6.4800    6.4900    6.5000    6.5100    6.5200    6.5300    6.5400    6.5500
    6.5600    6.5700    6.5800    6.5900    6.6000    6.6100    6.6200    6.6300
    6.6400    6.6500    6.6600    6.6700    6.6800    6.6900    6.7000    6.7100
    6.7200    6.7300    6.7400    6.7500    6.7600    6.7700    6.7800    6.7900
    6.8000    6.8100    6.8200    6.8300    6.8400    6.8500    6.8600    6.8700
    6.8800    6.8900    6.9000    6.9100    6.9200    6.9300    6.9400    6.9500
    6.9600    6.9700    6.9800    6.9900    7.0000    7.0100    7.0200    7.0300
    7.0400    7.0500    7.0600    7.0700    7.0800    7.0900    7.1000    7.1100
    7.1200    7.1300    7.1400    7.1500    7.1600    7.1700    7.1800    7.1900
    7.2000    7.2100    7.2200    7.2300    7.2400    7.2500    7.2600    7.2700
    7.2800    7.2900    7.3000    7.3100    7.3200    7.3300    7.3400    7.3500
    7.3600    7.3700    7.3800    7.3900    7.4000    7.4100    7.4200    7.4300
    7.4400    7.4500    7.4600    7.4700    7.4800    7.4900    7.5000    7.5100
    7.5200    7.5300    7.5400    7.5500    7.5600    7.5700    7.5800    7.5900
    7.6000    7.6100    7.6200    7.6300    7.6400    7.6500    7.6600    7.6700
    7.6800    7.6900    7.7000    7.7100    7.7200    7.7300    7.7400    7.7500
    7.7600    7.7700    7.7800    7.7900    7.8000    7.8100    7.8200    7.8300
    7.8400    7.8500    7.8600    7.8700    7.8800    7.8900    7.9000    7.9100
    7.9200    7.9300    7.9400    7.9500    7.9600    7.9700    7.9800    7.9900
    8.0000    8.0100    8.0200    8.0300    8.0400    8.0500    8.0600    8.0700
    8.0800    8.0900    8.1000    8.1100    8.1200    8.1300    8.1400    8.1500
    8.1600    8.1700    8.1800    8.1900    8.2000    8.2100    8.2200    8.2300
    8.2400    8.2500    8.2600    8.2700    8.2800    8.2900    8.3000    8.3100
    8.3200    8.3300    8.3400    8.3500    8.3600    8.3700    8.3800    8.3900
    8.4000    8.4100    8.4200    8.4300    8.4400    8.4500    8.4600    8.4700
    8.4800    8.4900    8.5000    8.5100    8.5200    8.5300    8.5400    8.5500
    8.5600    8.5700    8.5800    8.5900    8.6000    8.6100    8.6200    8.6300
    8.6400    8.6500    8.6600    8.6700    8.6800    8.6900    8.7000    8.7100
    8.7200    8.7300    8.7400    8.7500    8.7600    8.7700    8.7800    8.7900
    8.8000    8.8100    8.8200    8.8300    8.8400    8.8500    8.8600    8.8700
    8.8800    8.8900    8.9000    8.9100    8.9200    8.9300    8.9400    8.9500
    8.9600    8.9700    8.9800    8.9900    9.0000    9.0100    9.0200    9.0300
    9.0400    9.0500    9.0600    9.0700    9.0800    9.0900    9.1000    9.1100
    9.1200    9.1300    9.1400    9.1500    9.1600    9.1700    9.1800    9.1900
    9.2000    9.2100    9.2200    9.2300    9.2400    9.2500    9.2600    9.2700
   </PP_R>
   <PP_RAB type="real"  size=" 928" columns="8">
    0.0100    0.0100    0.0100    0.0100    0.0100    0.0100    0.0100    0.0100
    0.0100    0.0100    0.0100    0.0100    0.0100    0.0100    0.0100    0.0100
    0.0100    0.0100    0.0100    0.0100    0.0100    0.0100    0.0100    0.0100
    0.0100    0.0100    0.0100    0.0100    0.0100    0.0100    0.0100    0.0100
    0.0100    0.0100    0.0100    0.0100    0.0100    0.0100    0.0100    0.0100
    0.0100    0.0100    0.0100    0.0100    0.0100    0.0100    0.0100    0.0100
    0.0100    0.0100    0.0100    0.0100    0.0100    0.0100    0.0100    0.0100
    0.0100    0.0100    0.0100    0.0100    0.0100    0.0100    0.0100    0.0100
    0.0100    0.0100    0.0100    0.0100    0.0100    0.0100    0.0100    0.0100
    0.0100    0.0100    0.0100    0.0100    0.0100    0.0100    0.0100    0.0100
    0.0100    0.0100    0.0100    0.0100    0.0100    0.0100    0.0100    0.0100
    0.0100    0.0100    0.0100    0.0100    0.0100    0.0100    0.0100    0.0100
    0.0100    0.0100    0.0100    0.0100    0.0100    0.0100    0.0100    0.0100
    0.0100    0.0100    0.0100    0.0100    0.0100    0.0100    0.0100    0.0100
    0.0100    0.0100    0.0100    0.0100    0.0100    0.0100    0.0100    0.0100
    0.0100    0.0100    0.0100    0.0100    0.0100    0.0100    0.0100    0.0100
    0.0100    0.0100    0.0100    0.0100    0.0100    0.0100    0.0100    0.0100
    0.0100    0.0100    0.0100    0.0100    0.0100    0.0100    0.0100    0.0100
    0.0100    0.0100    0.0100    0.0100    0.0100    0.0100    0.0100    0.0100
    0.0100    0.0100    0.0100    0.0100    0.0100    0.0100    0.0100    0.0100
    0.0100    0.0100    0.0100    0.0100    0.0100    0.0100    0.0100    0.0100
    0.0100    0.0100    0.0100    0.0100    0.0100    0.0100    0.0100    0.0100
    0.0100    0.0100    0.0100    0.0100    0.0100    0.0100    0.0100    0.0100
    0.0100    0.0100    0.0100    0.0100    0.0100    0.0100    0.0100    0.0100
    0.0100    0.0100    0.0100    0.0100    0.0100    0.0100    0.0100    0.0100
    0.0100    0.0100    0.0100    0.0100    0.0100    0.0100    0.0100    0.0100
    0.0100    0.0100    0.0100    0.0100    0.0100    0.0100    0.0100    0.0100
    0.0100    0.0100    0.0100    0.0100    0.0100    0.0100    0.0100    0.0100
    0.0100    0.0100    0.0100    0.0100    0.0100    0.0100    0.0100    0.0100
    0.0100    0.0100    0.0100    0.0100    0.0100    0.0100    0.0100    0.0100
    0.0100    0.0100    0.0100    0.0100    0.0100    0.0100    0.0100    0.0100
    0.0100    0.0100    0.0100    0.0100    0.0100    0.0100    0.0100    0.0100
    0.0100    0.0100    0.0100    0.0100    0.0100    0.0100    0.0100    0.0100
    0.0100    0.0100    0.0100    0.0100    0.0100    0.0100    0.0100    0.0100
    0.0100    0.0100    0.0100    0.0100    0.0100    0.0100    0.0100    0.0100
    0.0100    0.0100    0.0100    0.0100    0.0100    0.0100    0.0100    0.0100
    0.0100    0.0100    0.0100    0.0100    0.0100    0.0100    0.0100    0.0100
    0.0100    0.0100    0.0100    0.0100    0.0100    0.0100    0.0100    0.0100
    0.0100    0.0100    0.0100    0.0100    0.0100    0.0100    0.0100    0.0100
    0.0100    0.0100    0.0100    0.0100    0.0100    0.0100    0.0100    0.0100
    0.0100    0.0100    0.0100    0.0100    0.0100    0.0100    0.0100    0.0100
    0.0100    0.0100    0.0100    0.0100    0.0100    0.0100    0.0100    0.0100
    0.0100    0.0100    0.0100    0.0100    0.0100    0.0100    0.0100    0.0100
    0.0100    0.0100    0.0100    0.0100    0.0100    0.0100    0.0100    0.0100
    0.0100    0.0100    0.0100    0.0100    0.0100    0.0100    0.0100    0.0100
    0.0100    0.0100    0.0100    0.0100    0.0100    0.0100    0.0100    0.0100
    0.0100    0.0100    0.0100    0.0100    0.0100    0.0100    0.0100    0.0100
    0.0100    0.0100    0.0100    0.0100    0.0100    0.0100    0.0100    0.0100
    0.0100    0.0100    0.0100    0.0100    0.0100    0.0100    0.0100    0.0100
    0.0100    0.0100    0.0100    0.0100    0.0100    0.0100    0.0100    0.0100
    0.0100    0.0100    0.0100    0.0100    0.0100    0.0100    0.0100    0.0100
    0.0100    0.0100    0.0100    0.0100    0.0100    0.0100    0.0100    0.0100
    0.0100    0.0100    0.0100    0.0100    0.0100    0.0100    0.0100    0.0100
    0.0100    0.0100    0.0100    0.0100    0.0100    0.0100    0.0100    0.0100
    0.0100    0.0100    0.0100    0.0100    0.0100    0.0100    0.0100    0.0100
    0.0100    0.0100    0.0100    0.0100    0.0100    0.0100    0.0100    0.0100
    0.0100    0.0100    0.0100    0.0100    0.0100    0.0100    0.0100    0.0100
    0.0100    0.0100    0.0100    0.0100    0.0100    0.0100    0.0100    0.0100
    0.0100    0.0100    0.0100    0.0100    0.0100    0.0100    0.0100    0.0100
    0.0100    0.0100    0.0100    0.0100    0.0100    0.0100    0.0100    0.0100
    0.0100    0.0100    0.0100    0.0100    0.0100    0.0100    0.0100    0.0100
    0.0100    0.0100    0.0100    0.0100    0.0100    0.0100    0.0100    0.0100
    0.0100    0.0100    0.0100    0.0100    0.0100    0.0100    0.0100    0.0100
    0.0100    0.0100    0.0100    0.0100    0.0100    0.0100    0.0100    0.0100
    0.0100    0.0100    0.0100    0.0100    0.0100    0.0100    0.0100    0.0100
    0.0100    0.0100    0.0100    0.0100    0.0100    0.0100    0.0100    0.0100
    0.0100    0.0100    0.0100    0.0100    0.0100    0.0100    0.0100    0.0100
    0.0100    0.0100    0.0100    0.0100    0.0100    0.0100    0.0100    0.0100
    0.0100    0.0100    0.0100    0.0100    0.0100    0.0100    0.0100    0.0100
    0.0100    0.0100    0.0100    0.0100    0.0100    0.0100    0.0100    0.0100
    0.0100    0.0100    0.0100    0.0100    0.0100    0.0100    0.0100    0.0100
    0.0100    0.0100    0.0100    0.0100    0.0100    0.0100    0.0100    0.0100
    0.0100    0.0100    0.0100    0.0100    0.0100    0.0100    0.0100    0.0100
    0.0100    0.0100    0.0100    0.0100    0.0100    0.0100    0.0100    0.0100
    0.0100    0.0100    0.0100    0.0100    0.0100    0.0100    0.0100    0.0100
    0.0100    0.0100    0.0100    0.0100    0.0100    0.0100    0.0100    0.0100
    0.0100    0.0100    0.0100    0.0100    0.0100    0.0100    0.0100    0.0100
    0.0100    0.0100    0.0100    0.0100    0.0100    0.0100    0.0100    0.0100
    0.0100    0.0100    0.0100    0.0100    0.0100    0.0100    0.0100    0.0100
    0.0100    0.0100    0.0100    0.0100    0.0100    0.0100    0.0100    0.0100
    0.0100    0.0100    0.0100    0.0100    0.0100    0.0100    0.0100    0.0100
    0.0100    0.0100    0.0100    0.0100    0.0100    0.0100    0.0100    0.0100
    0.0100    0.0100    0.0100    0.0100    0.0100    0.0100    0.0100    0.0100
    0.0100    0.0100    0.0100    0.0100    0.0100    0.0100    0.0100    0.0100
    0.0100    0.0100    0.0100    0.0100    0.0100    0.0100    0.0100    0.0100
    0.0100    0.0100    0.0100    0.0100    0.0100    0.0100    0.0100    0.0100
    0.0100    0.0100    0.0100    0.0100    0.0100    0.0100    0.0100    0.0100
    0.0100    0.0100    0.0100    0.0100    0.0100    0.0100    0.0100    0.0100
    0.0100    0.0100    0.0100    0.0100    0.0100    0.0100    0.0100    0.0100
    0.0100    0.0100    0.0100    0.0100    0.0100    0.0100    0.0100    0.0100
    0.0100    0.0100    0.0100    0.0100    0.0100    0.0100    0.0100    0.0100
    0.0100    0.0100    0.0100    0.0100    0.0100    0.0100    0.0100    0.0100
    0.0100    0.0100    0.0100    0.0100    0.0100    0.0100    0.0100    0.0100
    0.0100    0.0100    0.0100    0.0100    0.0100    0.0100    0.0100    0.0100
    0.0100    0.0100    0.0100    0.0100    0.0100    0.0100    0.0100    0.0100
    0.0100    0.0100    0.0100    0.0100    0.0100    0.0100    0.0100    0.0100
    0.0100    0.0100    0.0100    0.0100    0.0100    0.0100    0.0100    0.0100
    0.0100    0.0100    0.0100    0.0100    0.0100    0.0100    0.0100    0.0100
    0.0100    0.0100    0.0100    0.0100    0.0100    0.0100    0.0100    0.0100
    0.0100    0.0100    0.0100    0.0100    0.0100    0.0100    0.0100    0.0100
    0.0100    0.0100    0.0100    0.0100    0.0100    0.0100    0.0100    0.0100
    0.0100    0.0100    0.0100    0.0100    0.0100    0.0100    0.0100    0.0100
    0.0100    0.0100    0.0100    0.0100    0.0100    0.0100    0.0100    0.0100
    0.0100    0.0100    0.0100    0.0100    0.0100    0.0100    0.0100    0.0100
    0.0100    0.0100    0.0100    0.0100    0.0100    0.0100    0.0100    0.0100
    0.0100    0.0100    0.0100    0.0100    0.0100    0.0100    0.0100    0.0100
    0.0100    0.0100    0.0100    0.0100    0.0100    0.0100    0.0100    0.0100
    0.0100    0.0100    0.0100    0.0100    0.0100    0.0100    0.0100    0.0100
    0.0100    0.0100    0.0100    0.0100    0.0100    0.0100    0.0100    0.0100
    0.0100    0.0100    0.0100    0.0100    0.0100    0.0100    0.0100    0.0100
    0.0100    0.0100    0.0100    0.0100    0.0100    0.0100    0.0100    0.0100
    0.0100    0.0100    0.0100    0.0100    0.0100    0.0100    0.0100    0.0100
    0.0100    0.0100    0.0100    0.0100    0.0100    0.0100    0.0100    0.0100
    0.0100    0.0100    0.0100    0.0100    0.0100    0.0100    0.0100    0.0100
    0.0100    0.0100    0.0100    0.0100    0.0100    0.0100    0.0100    0.0100
    0.0100    0.0100    0.0100    0.0100    0.0100    0.0100    0.0100    0.0100
   </PP_RAB>
 </PP_MESH>
  <PP_LOCAL type="real"  size=" 928" columns="4">
   -2.1517847653E+01   -2.1517265944E+01   -2.1515519303E+01   -2.1512607831E+01
   -2.1508530923E+01   -2.1503287732E+01   -2.1496877170E+01   -2.1489297906E+01
   -2.1480548366E+01   -2.1470626734E+01   -2.1459530954E+01   -2.1447258724E+01
   -2.1433807503E+01   -2.1419174508E+01   -2.1403356717E+01   -2.1386350866E+01
   -2.1368153456E+01   -2.1348760750E+01   -2.1328168778E+01   -2.1306373341E+01
   -2.1283370010E+01   -2.1259154136E+01   -2.1233720849E+01   -2.1207065070E+01
   -2.1179181511E+01   -2.1150064689E+01   -2.1119708930E+01   -2.1088108382E+01
   -2.1055257023E+01   -2.1021148677E+01   -2.0985777023E+01   -2.0949135616E+01
   -2.0911217897E+01   -2.0872017218E+01   -2.0831526855E+01   -2.0789740038E+01
   -2.0746649967E+01   -2.0702249842E+01   -2.0656532887E+01   -2.0609492386E+01
   -2.0561121706E+01   -2.0511414338E+01   -2.0460363932E+01   -2.0407964332E+01
   -2.0354209622E+01   -2.0299094163E+01   -2.0242612647E+01   -2.0184760138E+01
   -2.0125532127E+01   -2.0064924580E+01   -2.0002934002E+01   -1.9939557483E+01
   -1.9874792768E+01   -1.9808638312E+01   -1.9741093346E+01   -1.9672157940E+01
   -1.9601833070E+01   -1.9530120685E+01   -1.9457023773E+01   -1.9382546431E+01
   -1.9306693929E+01   -1.9229472778E+01   -1.9150890792E+01   -1.9070957157E+01
   -1.8989682483E+01   -1.8907078865E+01   -1.8823159935E+01   -1.8737940908E+01
   -1.8651438628E+01   -1.8563671598E+01   -1.8474660016E+01   -1.8384425792E+01
   -1.8292992565E+01   -1.8200385708E+01   -1.8106632323E+01   -1.8011761234E+01
   -1.7915802961E+01   -1.7818789692E+01   -1.7720755244E+01   -1.7621735014E+01
   -1.7521765922E+01   -1.7420886344E+01   -1.7319136045E+01   -1.7216556093E+01
   -1.7113188774E+01   -1.7009077505E+01   -1.6904266730E+01   -1.6798801826E+01
   -1.6692728996E+01   -1.6586095166E+01   -1.6478947876E+01   -1.6371335174E+01
   -1.6263305509E+01   -1.6154907626E+01   -1.6046190461E+01   -1.5937203039E+01
   -1.5827994377E+01   -1.5718613387E+01   -1.5609108784E+01   -1.5499529000E+01
   -1.5389922097E+01   -1.5280335690E+01   -1.5170816871E+01   -1.5061412139E+01
   -1.4952167331E+01   -1.4843127562E+01   -1.4734337168E+01   -1.4625839647E+01
   -1.4517677616E+01   -1.4409892756E+01   -1.4302525776E+01   -1.4195616369E+01
   -1.4089203176E+01   -1.3983323752E+01   -1.3878014534E+01   -1.3773310811E+01
   -1.3669246697E+01   -1.3565855107E+01   -1.3463167732E+01   -1.3361215017E+01
   -1.3260026142E+01   -1.3159629000E+01   -1.3060050180E+01   -1.2961314950E+01
   -1.2863447240E+01   -1.2766469626E+01   -1.2670403315E+01   -1.2575268128E+01
   -1.2481082490E+01   -1.2387863414E+01   -1.2295626482E+01   -1.2204385841E+01
   -1.2114154181E+01   -1.2024942854E+01   -1.1936760227E+01   -1.1849619079E+01
   -1.1763454535E+01   -1.1678380821E+01   -1.1594356636E+01   -1.1511389649E+01
   -1.1429479373E+01   -1.1348624887E+01   -1.1268823593E+01   -1.1190071276E+01
   -1.1112362097E+01   -1.1035688564E+01   -1.0960041524E+01   -1.0885410141E+01
   -1.0811781877E+01   -1.0739142473E+01   -1.0667475937E+01   -1.0596764506E+01
   -1.0526989272E+01   -1.0458131456E+01   -1.0390172808E+01   -1.0323095572E+01
   -1.0256882490E+01   -1.0191516782E+01   -1.0126982111E+01   -1.0063262548E+01
   -1.0000342558E+01   -9.9382069916E+00   -9.8768410769E+00   -9.8162304085E+00
   -9.7563609389E+00   -9.6972189692E+00   -9.6387911399E+00   -9.5810644222E+00
   -9.5240261092E+00   -9.4676638070E+00   -9.4119654260E+00   -9.3569191728E+00
   -9.3025135415E+00   -9.2487373057E+00   -9.1955795100E+00   -9.1430294625E+00
   -9.0910767267E+00   -9.0397111139E+00   -8.9889226755E+00   -8.9387016960E+00
   -8.8890386856E+00   -8.8399243734E+00   -8.7913497002E+00   -8.7433058125E+00
   -8.6957840555E+00   -8.6487759674E+00   -8.6022732730E+00   -8.5562678780E+00
   -8.5107518637E+00   -8.4657174814E+00   -8.4211571470E+00   -8.3770634365E+00
   -8.3334290809E+00   -8.2902469617E+00   -8.2475101067E+00   -8.2052116855E+00
   -8.1633450059E+00   -8.1219035098E+00   -8.0808807694E+00   -8.0402704844E+00
   -8.0000664778E+00   -7.9602626936E+00   -7.9208531930E+00   -7.8818321519E+00
   -7.8431938584E+00   -7.8049327093E+00   -7.7670432087E+00   -7.7295199645E+00
   -7.6923576869E+00   -7.6555511855E+00   -7.6190953675E+00   -7.5829852356E+00
   -7.5472158858E+00   -7.5117825056E+00   -7.4766803718E+00   -7.4419048491E+00
   -7.4074513879E+00   -7.3733155223E+00   -7.3394928693E+00   -7.3059791259E+00
   -7.2727700683E+00   -7.2398615498E+00   -7.2072494994E+00   -7.1749299199E+00
   -7.1428988868E+00   -7.1111525463E+00   -7.0796871138E+00   -7.0484988727E+00
   -7.0175841728E+00   -6.9869394285E+00   -6.9565611177E+00   -6.9264457803E+00
   -6.8965900168E+00   -6.8669904869E+00   -6.8376439081E+00   -6.8085470544E+00
   -6.7796967553E+00   -6.7510898939E+00   -6.7227234063E+00   -6.6945942800E+00
   -6.6666995530E+00   -6.6390363125E+00   -6.6116016936E+00   -6.5843928788E+00
   -6.5574070963E+00   -6.5306416193E+00   -6.5040937653E+00   -6.4777608945E+00
   -6.4516404094E+00   -6.4257297539E+00   -6.4000264120E+00   -6.3745279077E+00
   -6.3492318033E+00   -6.3241356996E+00   -6.2992372345E+00   -6.2745340824E+00
   -6.2500239537E+00   -6.2257045940E+00   -6.2015737835E+00   -6.1776293363E+00
   -6.1538690998E+00   -6.1302909543E+00   -6.1068928122E+00   -6.0836726175E+00
   -6.0606283451E+00   -6.0377580009E+00   -6.0150596202E+00   -5.9925312683E+00
   -5.9701710392E+00   -5.9479770554E+00   -5.9259474675E+00   -5.9040804535E+00
   -5.8823742185E+00   -5.8608269941E+00   -5.8394370379E+00   -5.8182026334E+00
   -5.7971220890E+00   -5.7761937379E+00   -5.7554159377E+00   -5.7347870683E+00
   -5.7143055368E+00   -5.6939697763E+00   -5.6737782413E+00   -5.6537294057E+00
   -5.6338217617E+00   -5.6140538223E+00   -5.5944241224E+00   -5.5749312169E+00
   -5.5555736809E+00   -5.5363501089E+00   -5.5172591153E+00   -5.4982993331E+00
   -5.4794694143E+00   -5.4607680291E+00   -5.4421938660E+00   -5.4237456312E+00
   -5.4054220482E+00   -5.3872218580E+00   -5.3691438183E+00   -5.3511867035E+00
   -5.3333493044E+00   -5.3156304276E+00   -5.2980288959E+00   -5.2805435473E+00
   -5.2631732353E+00   -5.2459168284E+00   -5.2287732097E+00   -5.2117412772E+00
   -5.1948199429E+00   -5.1780081330E+00   -5.1613047877E+00   -5.1447088606E+00
   -5.1282193187E+00   -5.1118351426E+00   -5.0955553253E+00   -5.0793788731E+00
   -5.0633048045E+00   -5.0473321507E+00   -5.0314599548E+00   -5.0156872721E+00
   -5.0000131697E+00   -4.9844367263E+00   -4.9689570318E+00   -4.9535731878E+00
   -4.9382843067E+00   -4.9230895119E+00   -4.9079879376E+00   -4.8929787285E+00
   -4.8780610398E+00   -4.8632340370E+00   -4.8484968955E+00   -4.8338488011E+00
   -4.8192889489E+00   -4.8048165441E+00   -4.7904308011E+00   -4.7761309438E+00
   -4.7619162055E+00   -4.7477858283E+00   -4.7337390635E+00   -4.7197751712E+00
   -4.7058934200E+00   -4.6920930874E+00   -4.6783734591E+00   -4.6647338293E+00
   -4.6511735002E+00   -4.6376917823E+00   -4.6242879941E+00   -4.6109614616E+00
   -4.5977115190E+00   -4.5845375078E+00   -4.5714387773E+00   -4.5584146839E+00
   -4.5454645916E+00   -4.5325878713E+00   -4.5197839015E+00   -4.5070520671E+00
   -4.4943917604E+00   -4.4818023803E+00   -4.4692833323E+00   -4.4568340288E+00
   -4.4444538886E+00   -4.4321423368E+00   -4.4198988050E+00   -4.4077227312E+00
   -4.3956135593E+00   -4.3835707394E+00   -4.3715937277E+00   -4.3596819861E+00
   -4.3478349827E+00   -4.3360521911E+00   -4.3243330906E+00   -4.3126771662E+00
   -4.3010839084E+00   -4.2895528132E+00   -4.2780833820E+00   -4.2666751214E+00
   -4.2553275433E+00   -4.2440401650E+00   -4.2328125085E+00   -4.2216441012E+00
   -4.2105344753E+00   -4.1994831680E+00   -4.1884897212E+00   -4.1775536817E+00
   -4.1666746010E+00   -4.1558520354E+00   -4.1450855455E+00   -4.1343746966E+00
   -4.1237190585E+00   -4.1131182055E+00   -4.1025717161E+00   -4.0920791732E+00
   -4.0816401639E+00   -4.0712542796E+00   -4.0609211158E+00   -4.0506402720E+00
   -4.0404113519E+00   -4.0302339631E+00   -4.0201077172E+00   -4.0100322296E+00
   -4.0000071197E+00   -3.9900320106E+00   -3.9801065291E+00   -3.9702303057E+00
   -3.9604029748E+00   -3.9506241741E+00   -3.9408935450E+00   -3.9312107324E+00
   -3.9215753849E+00   -3.9119871541E+00   -3.9024456954E+00   -3.8929506673E+00
   -3.8835017317E+00   -3.8740985539E+00   -3.8647408023E+00   -3.8554281484E+00
   -3.8461602670E+00   -3.8369368361E+00   -3.8277575366E+00   -3.8186220525E+00
   -3.8095300709E+00   -3.8004812818E+00   -3.7914753780E+00   -3.7825120555E+00
   -3.7735910130E+00   -3.7647119520E+00   -3.7558745769E+00   -3.7470785948E+00