<UPF version="2.0.1">
  <PP_INFO>

 This pseudopotential file has been produced using the code
 ONCVPSP  (Optimized Norm-Conservinng Vanderbilt PSeudopotential)
 scalar-relativistic version 4.0.1 06/04/2019 by D. R. Hamann
 The code is available through a link at URL www.mat-simresearch.com.
 Documentation with the package provides a full discription of the
 input data below.


 While it is not required under the terms of the GNU GPL, it is
 suggested that you cite D. R. Hamann, Phys. Rev. B 88, 085117 (2013)
 in any publication using these pseudopotentials.

    <PP_INPUTFILE>
# ATOM AND REFERENCE CONFIGURATION
# atsym  z   nc   nv     iexc    psfile
  F  9.00    1    2       3      upf
#
#   n    l    f        energy (Ha)
    1    0    2.00
    2    0    2.00
    2    1    5.00
#
# PSEUDOPOTENTIAL AND OPTIMIZATION
# lmax
    2
#
#   l,   rc,      ep,       ncon, nbas, qcut
    0   1.30000  -1.10000    4    8   8.60000
    1   1.45000  -0.41000    4    8   9.00000
    2   1.60000   0.15000    4    8   5.80000
#
# LOCAL POTENTIAL
# lloc, lpopt,  rc(5),   dvloc0
    4    5   0.95000      0.00000
#
# VANDERBILT-KLEINMAN-BYLANDER PROJECTORs
# l, nproj, debl
    0    2   1.50000
    1    2   1.50000
    2    1   2.00000
#
# MODEL CORE CHARGE
# icmod, fcfact, rcfact
    3   2.50000   1.85000
#
# LOG DERIVATIVE ANALYSIS
# epsh1, epsh2, depsh
  -12.00   12.00    0.02
#
# OUTPUT GRID
# rlmax, drl
    6.00    0.01
#
# TEST CONFIGURATIONS
# ncnf
    0
# nvcnf
#   n    l    f
    </PP_INPUTFILE>
  </PP_INFO>
  <!--                               -->
  <!-- END OF HUMAN READABLE SECTION -->
  <!--                               -->
    <PP_HEADER
       generated="Generated using ONCVPSP code by D. R. Hamann"
       author="anonymous"
       date="220414"
       comment=""
       element="F "
       pseudo_type="NC"
       relativistic="scalar"
       is_ultrasoft="F"
       is_paw="F"
       is_coulomb="F"
       has_so="F"
       has_wfc="F"
       has_gipaw="F"
       core_correction="T"
       functional="PZ"
       z_valence="    7.00"
       total_psenergy="  -4.77090576686E+01"
       rho_cutoff="   8.23000000000E+00"
       l_max="2"
       l_local="-1"
       mesh_size="   824"
       number_of_wfc="2"
       number_of_proj="5"/>
 <PP_MESH>
   <PP_R type="real"  size=" 824" columns="8">
    0.0000    0.0100    0.0200    0.0300    0.0400    0.0500    0.0600    0.0700
    0.0800    0.0900    0.1000    0.1100    0.1200    0.1300    0.1400    0.1500
    0.1600    0.1700    0.1800    0.1900    0.2000    0.2100    0.2200    0.2300
    0.2400    0.2500    0.2600    0.2700    0.2800    0.2900    0.3000    0.3100
    0.3200    0.3300    0.3400    0.3500    0.3600    0.3700    0.3800    0.3900
    0.4000    0.4100    0.4200    0.4300    0.4400    0.4500    0.4600    0.4700
    0.4800    0.4900    0.5000    0.5100    0.5200    0.5300    0.5400    0.5500
    0.5600    0.5700    0.5800    0.5900    0.6000    0.6100    0.6200    0.6300
    0.6400    0.6500    0.6600    0.6700    0.6800    0.6900    0.7000    0.7100
    0.7200    0.7300    0.7400    0.7500    0.7600    0.7700    0.7800    0.7900
    0.8000    0.8100    0.8200    0.8300    0.8400    0.8500    0.8600    0.8700
    0.8800    0.8900    0.9000    0.9100    0.9200    0.9300    0.9400    0.9500
    0.9600    0.9700    0.9800    0.9900    1.0000    1.0100    1.0200    1.0300
    1.0400    1.0500    1.0600    1.0700    1.0800    1.0900    1.1000    1.1100
    1.1200    1.1300    1.1400    1.1500    1.1600    1.1700    1.1800    1.1900
    1.2000    1.2100    1.2200    1.2300    1.2400    1.2500    1.2600    1.2700
    1.2800    1.2900    1.3000    1.3100    1.3200    1.3300    1.3400    1.3500
    1.3600    1.3700    1.3800    1.3900    1.4000    1.4100    1.4200    1.4300
    1.4400    1.4500    1.4600    1.4700    1.4800    1.4900    1.5000    1.5100
    1.5200    1.5300    1.5400    1.5500    1.5600    1.5700    1.5800    1.5900
    1.6000    1.6100    1.6200    1.6300    1.6400    1.6500    1.6600    1.6700
    1.6800    1.6900    1.7000    1.7100    1.7200    1.7300    1.7400    1.7500
    1.7600    1.7700    1.7800    1.7900    1.8000    1.8100    1.8200    1.8300
    1.8400    1.8500    1.8600    1.8700    1.8800    1.8900    1.9000    1.9100
    1.9200    1.9300    1.9400    1.9500    1.9600    1.9700    1.9800    1.9900
    2.0000    2.0100    2.0200    2.0300    2.0400    2.0500    2.0600    2.0700
    2.0800    2.0900    2.1000    2.1100    2.1200    2.1300    2.1400    2.1500
    2.1600    2.1700    2.1800    2.1900    2.2000    2.2100    2.2200    2.2300
    2.2400    2.2500    2.2600    2.2700    2.2800    2.2900    2.3000    2.3100
    2.3200    2.3300    2.3400    2.3500    2.3600    2.3700    2.3800    2.3900
    2.4000    2.4100    2.4200    2.4300    2.4400    2.4500    2.4600    2.4700
    2.4800    2.4900    2.5000    2.5100    2.5200    2.5300    2.5400    2.5500
    2.5600    2.5700    2.5800    2.5900    2.6000    2.6100    2.6200    2.6300
    2.6400    2.6500    2.6600    2.6700    2.6800    2.6900    2.7000    2.7100
    2.7200    2.7300    2.7400    2.7500    2.7600    2.7700    2.7800    2.7900
    2.8000    2.8100    2.8200    2.8300    2.8400    2.8500    2.8600    2.8700
    2.8800    2.8900    2.9000    2.9100    2.9200    2.9300    2.9400    2.9500
    2.9600    2.9700    2.9800    2.9900    3.0000    3.0100    3.0200    3.0300
    3.0400    3.0500    3.0600    3.0700    3.0800    3.0900    3.1000    3.1100
    3.1200    3.1300    3.1400    3.1500    3.1600    3.1700    3.1800    3.1900
    3.2000    3.2100    3.2200    3.2300    3.2400    3.2500    3.2600    3.2700
    3.2800    3.2900    3.3000    3.3100    3.3200    3.3300    3.3400    3.3500
    3.3600    3.3700    3.3800    3.3900    3.4000    3.4100    3.4200    3.4300
    3.4400    3.4500    3.4600    3.4700    3.4800    3.4900    3.5000    3.5100
    3.5200    3.5300    3.5400    3.5500    3.5600    3.5700    3.5800    3.5900
    3.6000    3.6100    3.6200    3.6300    3.6400    3.6500    3.6600    3.6700
    3.6800    3.6900    3.7000    3.7100    3.7200    3.7300    3.7400    3.7500
    3.7600    3.7700    3.7800    3.7900    3.8000    3.8100    3.8200    3.8300
    3.8400    3.8500    3.8600    3.8700    3.8800    3.8900    3.9000    3.9100
    3.9200    3.9300    3.9400    3.9500    3.9600    3.9700    3.9800    3.9900
    4.0000    4.0100    4.0200    4.0300    4.0400    4.0500    4.0600    4.0700
    4.0800    4.0900    4.1000    4.1100    4.1200    4.1300    4.1400    4.1500
    4.1600    4.1700    4.1800    4.1900    4.2000    4.2100    4.2200    4.2300
    4.2400    4.2500    4.2600    4.2700    4.2800    4.2900    4.3000    4.3100
    4.3200    4.3300    4.3400    4.3500    4.3600    4.3700    4.3800    4.3900
    4.4000    4.4100    4.4200    4.4300    4.4400    4.4500    4.4600    4.4700
    4.4800    4.4900    4.5000    4.5100    4.5200    4.5300    4.5400    4.5500
    4.5600    4.5700    4.5800    4.5900    4.6000    4.6100    4.6200    4.6300
    4.6400    4.6500    4.6600    4.6700    4.6800    4.6900    4.7000    4.7100
    4.7200    4.7300    4.7400    4.7500    4.7600    4.7700    4.7800    4.7900
    4.8000    4.8100    4.8200    4.8300    4.8400    4.8500    4.8600    4.8700
    4.8800    4.8900    4.9000    4.9100    4.9200    4.9300    4.9400    4.9500
    4.9600    4.9700    4.9800    4.9900    5.0000    5.0100    5.0200    5.0300
    5.0400    5.0500    5.0600    5.0700    5.0800    5.0900    5.1000    5.1100
    5.1200    5.1300    5.1400    5.1500    5.1600    5.1700    5.1800    5.1900
    5.2000    5.2100    5.2200    5.2300    5.2400    5.2500    5.2600    5.2700
    5.2800    5.2900    5.3000    5.3100    5.3200    5.3300    5.3400    5.3500
    5.3600    5.3700    5.3800    5.3900    5.4000    5.4100    5.4200    5.4300
    5.4400    5.4500    5.4600    5.4700    5.4800    5.4900    5.5000    5.5100
    5.5200    5.5300    5.5400    5.5500    5.5600    5.5700    5.5800    5.5900
    5.6000    5.6100    5.6200    5.6300    5.6400    5.6500    5.6600    5.6700
    5.6800    5.6900    5.7000    5.7100    5.7200    5.7300    5.7400    5.7500
    5.7600    5.7700    5.7800    5.7900    5.8000    5.8100    5.8200    5.8300
    5.8400    5.8500    5.8600    5.8700    5.8800    5.8900    5.9000    5.9100
    5.9200    5.9300    5.9400    5.9500    5.9600    5.9700    5.9800    5.9900
    6.0000    6.0100    6.0200    6.0300    6.0400    6.0500    6.0600    6.0700
    6.0800    6.0900    6.1000    6.1100    6.1200    6.1300    6.1400    6.1500
    6.1600    6.1700    6.1800    6.1900    6.2000    6.2100    6.2200    6.2300
    6.2400    6.2500    6.2600    6.2700    6.2800    6.2900    6.3000    6.3100
    6.3200    6.3300    6.3400    6.3500    6.3600    6.3700    6.3800    6.3900
    6.4000    6.4100    6.4200    6.4300    6.4400    6.4500    6.4600    6.4700
    6.4800    6.4900    6.5000    6.5100    6.5200    6.5300    6.5400    6.5500
    6.5600    6.5700    6.5800    6.5900    6.6000    6.6100    6.6200    6.6300
    6.6400    6.6500    6.6600    6.6700    6.6800    6.6900    6.7000    6.7100
    6.7200    6.7300    6.7400    6.7500    6.7600    6.7700    6.7800    6.7900
    6.8000    6.8100    6.8200    6.8300    6.8400    6.8500    6.8600    6.8700
    6.8800    6.8900    6.9000    6.9100    6.9200    6.9300    6.9400    6.9500
    6.9600    6.9700    6.9800    6.9900    7.0000    7.0100    7.0200    7.0300
    7.0400    7.0500    7.0600    7.0700    7.0800    7.0900    7.1000    7.1100
    7.1200    7.1300    7.1400    7.1500    7.1600    7.1700    7.1800    7.1900
    7.2000    7.2100    7.2200    7.2300    7.2400    7.2500    7.2600    7.2700
    7.2800    7.2900    7.3000    7.3100    7.3200    7.3300    7.3400    7.3500
    7.3600    7.3700    7.3800    7.3900    7.4000    7.4100    7.4200    7.4300
    7.4400    7.4500    7.4600    7.4700    7.4800    7.4900    7.5000    7.5100
    7.5200    7.5300    7.5400    7.5500    7.5600    7.5700    7.5800    7.5900
    7.6000    7.6100    7.6200    7.6300    7.6400    7.6500    7.6600    7.6700
    7.6800    7.6900    7.7000    7.7100    7.7200    7.7300    7.7400    7.7500
    7.7600    7.7700    7.7800    7.7900    7.8000    7.8100    7.8200    7.8300
    7.8400    7.8500    7.8600    7.8700    7.8800    7.8900    7.9000    7.9100
    7.9200    7.9300    7.9400    7.9500    7.9600    7.9700    7.9800    7.9900
    8.0000    8.0100    8.0200    8.0300    8.0400    8.0500    8.0600    8.0700
    8.0800    8.0900    8.1000    8.1100    8.1200    8.1300    8.1400    8.1500
    8.1600    8.1700    8.1800    8.1900    8.2000    8.2100    8.2200    8.2300
   </PP_R>
   <PP_RAB type="real"  size=" 824" columns="8">
    0.0100    0.0100    0.0100    0.0100    0.0100    0.0100    0.0100    0.0100
    0.0100    0.0100    0.0100    0.0100    0.0100    0.0100    0.0100    0.0100
    0.0100    0.0100    0.0100    0.0100    0.0100    0.0100    0.0100    0.0100
    0.0100    0.0100    0.0100    0.0100    0.0100    0.0100    0.0100    0.0100
    0.0100    0.0100    0.0100    0.0100    0.0100    0.0100    0.0100    0.0100
    0.0100    0.0100    0.0100    0.0100    0.0100    0.0100    0.0100    0.0100
    0.0100    0.0100    0.0100    0.0100    0.0100    0.0100    0.0100    0.0100
    0.0100    0.0100    0.0100    0.0100    0.0100    0.0100    0.0100    0.0100
    0.0100    0.0100    0.0100    0.0100    0.0100    0.0100    0.0100    0.0100
    0.0100    0.0100    0.0100    0.0100    0.0100    0.0100    0.0100    0.0100
    0.0100    0.0100    0.0100    0.0100    0.0100    0.0100    0.0100    0.0100
    0.0100    0.0100    0.0100    0.0100    0.0100    0.0100    0.0100    0.0100
    0.0100    0.0100    0.0100    0.0100    0.0100    0.0100    0.0100    0.0100
    0.0100    0.0100    0.0100    0.0100    0.0100    0.0100    0.0100    0.0100
    0.0100    0.0100    0.0100    0.0100    0.0100    0.0100    0.0100    0.0100
    0.0100    0.0100    0.0100    0.0100    0.0100    0.0100    0.0100    0.0100
    0.0100    0.0100    0.0100    0.0100    0.0100    0.0100    0.0100    0.0100
    0.0100    0.0100    0.0100    0.0100    0.0100    0.0100    0.0100    0.0100
    0.0100    0.0100    0.0100    0.0100    0.0100    0.0100    0.0100    0.0100
    0.0100    0.0100    0.0100    0.0100    0.0100    0.0100    0.0100    0.0100
    0.0100    0.0100    0.0100    0.0100    0.0100    0.0100    0.0100    0.0100
    0.0100    0.0100    0.0100    0.0100    0.0100    0.0100    0.0100    0.0100
    0.0100    0.0100    0.0100    0.0100    0.0100    0.0100    0.0100    0.0100
    0.0100    0.0100    0.0100    0.0100    0.0100    0.0100    0.0100    0.0100
    0.0100    0.0100    0.0100    0.0100    0.0100    0.0100    0.0100    0.0100
    0.0100    0.0100    0.0100    0.0100    0.0100    0.0100    0.0100    0.0100
    0.0100    0.0100    0.0100    0.0100    0.0100    0.0100    0.0100    0.0100
    0.0100    0.0100    0.0100    0.0100    0.0100    0.0100    0.0100    0.0100
    0.0100    0.0100    0.0100    0.0100    0.0100    0.0100    0.0100    0.0100
    0.0100    0.0100    0.0100    0.0100    0.0100    0.0100    0.0100    0.0100
    0.0100    0.0100    0.0100    0.0100    0.0100    0.0100    0.0100    0.0100
    0.0100    0.0100    0.0100    0.0100    0.0100    0.0100    0.0100    0.0100
    0.0100    0.0100    0.0100    0.0100    0.0100    0.0100    0.0100    0.0100
    0.0100    0.0100    0.0100    0.0100    0.0100    0.0100    0.0100    0.0100
    0.0100    0.0100    0.0100    0.0100    0.0100    0.0100    0.0100    0.0100
    0.0100    0.0100    0.0100    0.0100    0.0100    0.0100    0.0100    0.0100
    0.0100    0.0100    0.0100    0.0100    0.0100    0.0100    0.0100    0.0100
    0.0100    0.0100    0.0100    0.0100    0.0100    0.0100    0.0100    0.0100
    0.0100    0.0100    0.0100    0.0100    0.0100    0.0100    0.0100    0.0100
    0.0100    0.0100    0.0100    0.0100    0.0100    0.0100    0.0100    0.0100
    0.0100    0.0100    0.0100    0.0100    0.0100    0.0100    0.0100    0.0100
    0.0100    0.0100    0.0100    0.0100    0.0100    0.0100    0.0100    0.0100
    0.0100    0.0100    0.0100    0.0100    0.0100    0.0100    0.0100    0.0100
    0.0100    0.0100    0.0100    0.0100    0.0100    0.0100    0.0100    0.0100
    0.0100    0.0100    0.0100    0.0100    0.0100    0.0100    0.0100    0.0100
    0.0100    0.0100    0.0100    0.0100    0.0100    0.0100    0.0100    0.0100
    0.0100    0.0100    0.0100    0.0100    0.0100    0.0100    0.0100    0.0100
    0.0100    0.0100    0.0100    0.0100    0.0100    0.0100    0.0100    0.0100
    0.0100    0.0100    0.0100    0.0100    0.0100    0.0100    0.0100    0.0100
    0.0100    0.0100    0.0100    0.0100    0.0100    0.0100    0.0100    0.0100
    0.0100    0.0100    0.0100    0.0100    0.0100    0.0100    0.0100    0.0100
    0.0100    0.0100    0.0100    0.0100    0.0100    0.0100    0.0100    0.0100
    0.0100    0.0100    0.0100    0.0100    0.0100    0.0100    0.0100    0.0100
    0.0100    0.0100    0.0100    0.0100    0.0100    0.0100    0.0100    0.0100
    0.0100    0.0100    0.0100    0.0100    0.0100    0.0100    0.0100    0.0100
    0.0100    0.0100    0.0100    0.0100    0.0100    0.0100    0.0100    0.0100
    0.0100    0.0100    0.0100    0.0100    0.0100    0.0100    0.0100    0.0100
    0.0100    0.0100    0.0100    0.0100    0.0100    0.0100    0.0100    0.0100
    0.0100    0.0100    0.0100    0.0100    0.0100    0.0100    0.0100    0.0100
    0.0100    0.0100    0.0100    0.0100    0.0100    0.0100    0.0100    0.0100
    0.0100    0.0100    0.0100    0.0100    0.0100    0.0100    0.0100    0.0100
    0.0100    0.0100    0.0100    0.0100    0.0100    0.0100    0.0100    0.0100
    0.0100    0.0100    0.0100    0.0100    0.0100    0.0100    0.0100    0.0100
    0.0100    0.0100    0.0100    0.0100    0.0100    0.0100    0.0100    0.0100
    0.0100    0.0100    0.0100    0.0100    0.0100    0.0100    0.0100    0.0100
    0.0100    0.0100    0.0100    0.0100    0.0100    0.0100    0.0100    0.0100
    0.0100    0.0100    0.0100    0.0100    0.0100    0.0100    0.0100    0.0100
    0.0100    0.0100    0.0100    0.0100    0.0100    0.0100    0.0100    0.0100
    0.0100    0.0100    0.0100    0.0100    0.0100    0.0100    0.0100    0.0100
    0.0100    0.0100    0.0100    0.0100    0.0100    0.0100    0.0100    0.0100
    0.0100    0.0100    0.0100    0.0100    0.0100    0.0100    0.0100    0.0100
    0.0100    0.0100    0.0100    0.0100    0.0100    0.0100    0.0100    0.0100
    0.0100    0.0100    0.0100    0.0100    0.0100    0.0100    0.0100    0.0100
    0.0100    0.0100    0.0100    0.0100    0.0100    0.0100    0.0100    0.0100
    0.0100    0.0100    0.0100    0.0100    0.0100    0.0100    0.0100    0.0100
    0.0100    0.0100    0.0100    0.0100    0.0100    0.0100    0.0100    0.0100
    0.0100    0.0100    0.0100    0.0100    0.0100    0.0100    0.0100    0.0100
    0.0100    0.0100    0.0100    0.0100    0.0100    0.0100    0.0100    0.0100
    0.0100    0.0100    0.0100    0.0100    0.0100    0.0100    0.0100    0.0100
    0.0100    0.0100    0.0100    0.0100    0.0100    0.0100    0.0100    0.0100
    0.0100    0.0100    0.0100    0.0100    0.0100    0.0100    0.0100    0.0100
    0.0100    0.0100    0.0100    0.0100    0.0100    0.0100    0.0100    0.0100
    0.0100    0.0100    0.0100    0.0100    0.0100    0.0100    0.0100    0.0100
    0.0100    0.0100    0.0100    0.0100    0.0100    0.0100    0.0100    0.0100
    0.0100    0.0100    0.0100    0.0100    0.0100    0.0100    0.0100    0.0100
    0.0100    0.0100    0.0100    0.0100    0.0100    0.0100    0.0100    0.0100
    0.0100    0.0100    0.0100    0.0100    0.0100    0.0100    0.0100    0.0100
    0.0100    0.0100    0.0100    0.0100    0.0100    0.0100    0.0100    0.0100
    0.0100    0.0100    0.0100    0.0100    0.0100    0.0100    0.0100    0.0100
    0.0100    0.0100    0.0100    0.0100    0.0100    0.0100    0.0100    0.0100
    0.0100    0.0100    0.0100    0.0100    0.0100    0.0100    0.0100    0.0100
    0.0100    0.0100    0.0100    0.0100    0.0100    0.0100    0.0100    0.0100
    0.0100    0.0100    0.0100    0.0100    0.0100    0.0100    0.0100    0.0100
    0.0100    0.0100    0.0100    0.0100    0.0100    0.0100    0.0100    0.0100
    0.0100    0.0100    0.0100    0.0100    0.0100    0.0100    0.0100    0.0100
    0.0100    0.0100    0.0100    0.0100    0.0100    0.0100    0.0100    0.0100
    0.0100    0.0100    0.0100    0.0100    0.0100    0.0100    0.0100    0.0100
    0.0100    0.0100    0.0100    0.0100    0.0100    0.0100    0.0100    0.0100
    0.0100    0.0100    0.0100    0.0100    0.0100    0.0100    0.0100    0.0100
    0.0100    0.0100    0.0100    0.0100    0.0100    0.0100    0.0100    0.0100
    0.0100    0.0100    0.0100    0.0100    0.0100    0.0100    0.0100    0.0100
    0.0100    0.0100    0.0100    0.0100    0.0100    0.0100    0.0100    0.0100
    0.0100    0.0100    0.0100    0.0100    0.0100    0.0100    0.0100    0.0100
   </PP_RAB>
 </PP_MESH>
  <PP_LOCAL type="real"  size=" 824" columns="4">
   -3.0658023182E+01   -3.0655341708E+01   -3.0647295763E+01   -3.0633885244E+01
   -3.0615109280E+01   -3.0590966742E+01   -3.0561456329E+01   -3.0526576686E+01
   -3.0486326534E+01   -3.0440704838E+01   -3.0389710981E+01   -3.0333344970E+01
   -3.0271607656E+01   -3.0204500978E+01   -3.0132028212E+01   -3.0054194248E+01
   -2.9971005870E+01   -2.9882472055E+01   -2.9788604274E+01   -2.9689416803E+01
   -2.9584927043E+01   -2.9475155837E+01   -2.9360127788E+01   -2.9239871580E+01
   -2.9114420287E+01   -2.8983811685E+01   -2.8848088543E+01   -2.8707298913E+01
   -2.8561496399E+01   -2.8410740414E+01   -2.8255096410E+01   -2.8094636099E+01
   -2.7929437639E+01   -2.7759585798E+01   -2.7585172091E+01   -2.7406294888E+01
   -2.7223059486E+01   -2.7035578153E+01   -2.6843970134E+01   -2.6648361623E+01
   -2.6448885698E+01   -2.6245682221E+01   -2.6038897700E+01   -2.5828685116E+01
   -2.5615203709E+01   -2.5398618736E+01   -2.5179101192E+01   -2.4956827494E+01
   -2.4731979140E+01   -2.4504742338E+01   -2.4275307605E+01   -2.4043869344E+01
   -2.3810625403E+01   -2.3575776605E+01   -2.3339526270E+01   -2.3102079723E+01
   -2.2863643784E+01   -2.2624426260E+01   -2.2384635420E+01   -2.2144479479E+01
   -2.1904166069E+01   -2.1663901721E+01   -2.1423891344E+01   -2.1184337714E+01
   -2.0945440962E+01   -2.0707398083E+01   -2.0470402439E+01   -2.0234643284E+01
   -2.0000305292E+01   -1.9767568102E+01   -1.9536605873E+01   -1.9307586847E+01
   -1.9080672932E+01   -1.8856019290E+01   -1.8633773938E+01   -1.8414077365E+01
   -1.8197062156E+01   -1.7982852622E+01   -1.7771564454E+01   -1.7563304367E+01
   -1.7358169770E+01   -1.7156248434E+01   -1.6957618168E+01   -1.6762346502E+01
   -1.6570490378E+01   -1.6382095839E+01   -1.6197197730E+01   -1.6015819393E+01
   -1.5837972369E+01   -1.5663656103E+01   -1.5492857640E+01   -1.5325551333E+01
   -1.5161698541E+01   -1.5001247324E+01   -1.4844132143E+01   -1.4690273552E+01
   -1.4539578571E+01   -1.4391948651E+01   -1.4247288196E+01   -1.4105505262E+01
   -1.3966511416E+01   -1.3830221607E+01   -1.3696554037E+01   -1.3565430046E+01
   -1.3436774000E+01   -1.3310513185E+01   -1.3186577703E+01   -1.3064900379E+01
   -1.2945416662E+01   -1.2828064535E+01   -1.2712784428E+01   -1.2599519127E+01
   -1.2488213691E+01   -1.2378815367E+01   -1.2271273512E+01   -1.2165539503E+01
   -1.2061567921E+01   -1.1959303962E+01   -1.1858792758E+01   -1.1759787996E+01
   -1.1662432307E+01   -1.1566625486E+01   -1.1472336589E+01   -1.1379530407E+01
   -1.1288173076E+01   -1.1198232014E+01   -1.1109675855E+01   -1.1022474379E+01
   -1.0936598456E+01   -1.0852019975E+01   -1.0768711791E+01   -1.0686647663E+01
   -1.0605802183E+01   -1.0526150671E+01   -1.0447669108E+01   -1.0370334090E+01
   -1.0294122782E+01   -1.0219012873E+01   -1.0144982537E+01   -1.0072010395E+01
   -1.0000075482E+01   -9.9291572120E+00   -9.8592353497E+00   -9.7902899853E+00
   -9.7223015095E+00   -9.6552505933E+00   -9.5891181754E+00   -9.5238855206E+00
   -9.4595343689E+00   -9.3960469565E+00   -9.3334059962E+00   -9.2715946624E+00
   -9.2105965757E+00   -9.1503957884E+00   -9.0909767703E+00   -9.0323243947E+00
   -8.9744239251E+00   -8.9172610024E+00   -8.8608216323E+00   -8.8050921735E+00
   -8.7500593263E+00   -8.6957101212E+00   -8.6420319083E+00   -8.5890123477E+00
   -8.5366393991E+00   -8.4849013126E+00   -8.4337866203E+00   -8.3832841270E+00
   -8.3333829027E+00   -8.2840722743E+00   -8.2353418186E+00   -8.1871813548E+00
   -8.1395809376E+00   -8.0925308509E+00   -8.0460216011E+00   -8.0000439112E+00
   -7.9545887149E+00   -7.9096471506E+00   -7.8652105563E+00   -7.8212704637E+00
   -7.7778185934E+00   -7.7348468495E+00   -7.6923473149E+00   -7.6503122464E+00
   -7.6087340699E+00   -7.5676053759E+00   -7.5269189146E+00   -7.4866675979E+00
   -7.4468444939E+00   -7.4074428060E+00   -7.3684558801E+00   -7.3298772015E+00
   -7.2917003910E+00   -7.2539192020E+00   -7.2165275163E+00   -7.1795193415E+00
   -7.1428888074E+00   -7.1066301630E+00   -7.0707377734E+00   -7.0352061170E+00
   -7.0000297828E+00   -6.9652034673E+00   -6.9307219721E+00   -6.8965802012E+00
   -6.8627731586E+00   -6.8292959456E+00   -6.7961437588E+00   -6.7633118877E+00
   -6.7307957120E+00   -6.6985907003E+00   -6.6666924073E+00   -6.6350964719E+00
   -6.6037986154E+00   -6.5727946394E+00   -6.5420804239E+00   -6.5116519259E+00
   -6.4815051768E+00   -6.4516362814E+00   -6.4220414161E+00   -6.3927168268E+00
   -6.3636588280E+00   -6.3348638006E+00   -6.3063281911E+00   -6.2780485092E+00
   -6.2500213275E+00   -6.2222432791E+00   -6.1947110570E+00   -6.1674214122E+00
   -6.1403711529E+00   -6.1135571430E+00   -6.0869763009E+00   -6.0606255985E+00
   -6.0345020596E+00   -6.0086027595E+00   -5.9829248232E+00   -5.9574654247E+00
   -5.9322217860E+00   -5.9071911759E+00   -5.8823709091E+00   -5.8577583453E+00
   -5.8333508882E+00   -5.8091459845E+00   -5.7851411232E+00   -5.7613338345E+00
   -5.7377216894E+00   -5.7143022981E+00   -5.6910733102E+00   -5.6680324128E+00
   -5.6451773307E+00   -5.6225058252E+00   -5.6000156933E+00   -5.5777047670E+00
   -5.5555709131E+00   -5.5336120318E+00   -5.5118260565E+00   -5.4902109529E+00
   -5.4687647186E+00   -5.4474853824E+00   -5.4263710036E+00   -5.4054196714E+00
   -5.3846295045E+00   -5.3639986504E+00   -5.3435252849E+00   -5.3232076115E+00
   -5.3030438610E+00   -5.2830322908E+00   -5.2631711846E+00   -5.2434588518E+00
   -5.2238936269E+00   -5.2044738694E+00   -5.1851979629E+00   -5.1660643149E+00
   -5.1470713565E+00   -5.1282175415E+00   -5.1095013465E+00   -5.0909212701E+00
   -5.0724758327E+00   -5.0541635763E+00   -5.0359830635E+00   -5.0179328778E+00
   -5.0000116227E+00   -4.9822179218E+00   -4.9645504181E+00   -4.9470077738E+00
   -4.9295886699E+00   -4.9122918061E+00   -4.8951159000E+00   -4.8780596873E+00
   -4.8611219212E+00   -4.8443013721E+00   -4.8275968274E+00   -4.8110070911E+00
   -4.7945309838E+00   -4.7781673420E+00   -4.7619150181E+00   -4.7457728799E+00
   -4.7297398108E+00   -4.7138147090E+00   -4.6979964876E+00   -4.6822840743E+00
   -4.6666764108E+00   -4.6511724533E+00   -4.6357711715E+00   -4.6204715487E+00
   -4.6052725819E+00   -4.5901732808E+00   -4.5751726685E+00   -4.5602697804E+00
   -4.5454636648E+00   -4.5307533820E+00   -4.5161380047E+00   -4.5016166174E+00
   -4.4871883163E+00   -4.4728522092E+00   -4.4586074153E+00   -4.4444530648E+00
   -4.4303882993E+00   -4.4164122708E+00   -4.4025241421E+00   -4.3887230868E+00
   -4.3750082884E+00   -4.3613789407E+00   -4.3478342478E+00   -4.3343734232E+00
   -4.3209956904E+00   -4.3077002825E+00   -4.2944864417E+00   -4.2813534199E+00
   -4.2683004778E+00   -4.2553268851E+00   -4.2424319206E+00   -4.2296148715E+00
   -4.2168750339E+00   -4.2042117120E+00   -4.1916242187E+00   -4.1791118749E+00
   -4.1666740095E+00   -4.1543099597E+00   -4.1420190701E+00   -4.1298006934E+00
   -4.1176541897E+00   -4.1055789268E+00   -4.0935742796E+00   -4.0816396306E+00
   -4.0697743693E+00   -4.0579778924E+00   -4.0462496034E+00   -4.0345889128E+00
   -4.0229952379E+00   -4.0114680026E+00   -4.0000066374E+00   -3.9886105794E+00
   -3.9772792718E+00   -3.9660121645E+00   -3.9548087133E+00   -3.9436683804E+00
   -3.9325906337E+00   -3.9215749475E+00   -3.9106208016E+00   -3.8997276817E+00
   -3.8888950793E+00   -3.8781224915E+00   -3.8674094210E+00   -3.8567553757E+00
   -3.8461598694E+00   -3.8356224208E+00   -3.8251425540E+00   -3.8147197983E+00
   -3.8043536882E+00   -3.7940437631E+00   -3.7837895675E+00   -3.7735906508E+00
   -3.7634465670E+00   -3.7533568753E+00   -3.7433211392E+00   -3.7333389272E+00
   -3.7234098123E+00   -3.7135333718E+00   -3.7037091877E+00   -3.6939368464E+00
   -3.6842159386E+00   -3.6745460593E+00   -3.6649268078E+00   -3.6553577875E+00
   -3.6458386059E+00   -3.6363688748E+00   -3.6269482097E+00   -3.6175762304E+00
   -3.6082525603E+00   -3.5989768269E+00   -3.5897486615E+00   -3.5805676991E+00
   -3.5714335785E+00   -3.5623459420E+00   -3.5533044358E+00   -3.5443087095E+00
   -3.5353584162E+00   -3.5264532126E+00   -3.5175927589E+00   -3.5087767186E+00
   -3.5000047586E+00   -3.4912765491E+00   -3.4825917637E+00   -3.4739500789E+00
   -3.4653511749E+00   -3.4567947348E+00   -3.4482804446E+00   -3.4398079938E+00
   -3.4313770747E+00   -3.4229873827E+00   -3.4146386161E+00   -3.4063304761E+00
   -3.3980626670E+00   -3.3898348958E+00   -3.3816468724E+00   -3.3734983094E+00
   -3.3653889223E+00   -3.3573184292E+00   -3.3492865510E+00   -3.3412930111E+00
   -3.3333375358E+00   -3.3254198538E+00   -3.3175396964E+00   -3.3096967976E+00
   -3.3018908936E+00   -3.2941217233E+00   -3.2863890281E+00   -3.2786925517E+00
   -3.2710320402E+00   -3.2634072420E+00   -3.2558179082E+00   -3.2482637917E+00
   -3.2407446480E+00   -3.2332602349E+00   -3.2258103122E+00   -3.2183946420E+00
   -3.2110129888E+00   -3.2036651189E+00   -3.1963508011E+00   -3.1890698059E+00
   -3.1818219062E+00   -3.1746068768E+00   -3.1674244947E+00   -3.1602745388E+00
   -3.1531567899E+00   -3.1460710310E+00   -3.1390170468E+00   -3.1319946241E+00
   -3.1250035516E+00   -3.1180436197E+00   -3.1111146210E+00   -3.1042163495E+00
   -3.0973486015E+00   -3.0905111747E+00   -3.0837038687E+00   -3.0769264850E+00
   -3.0701788268E+00   -3.0634606988E+00   -3.0567719076E+00   -3.0501122616E+00
   -3.0434815706E+00   -3.0368796462E+00   -3.0303063016E+00   -3.0237613517E+00
   -3.0172446127E+00   -3.0107559028E+00   -3.0042950415E+00   -2.9978618499E+00
   -2.9914561506E+00   -2.9850777677E+00   -2.9787265270E+00   -2.9724022554E+00
   -2.9661047817E+00   -2.9598339358E+00   -2.9535895492E+00   -2.9473714548E+00
   -2.9411794869E+00   -2.9350134811E+00   -2.9288732746E+00   -2.9227587058E+00
   -2.9166696143E+00   -2.9106058413E+00   -2.9045672293E+00   -2.8985536219E+00
   -2.8925648642E+00   -2.8866008024E+00   -2.8806612841E+00   -2.8747461581E+00
   -2.8688552745E+00   -2.8629884845E+00   -2.8571456407E+00   -2.8513265966E+00
   -2.8455312072E+00   -2.8397593286E+00   -2.8340108179E+00   -2.8282855336E+00
   -2.8225833351E+00   -2.8169040832E+00   -2.8112476395E+00   -2.8056138669E+00
   -2.8000026295E+00   -2.7944137923E+00   -2.7888472214E+00   -2.7833027840E+00
   -2.7777803483E+00   -2.7722797838E+00   -2.7668009606E+00   -2.7613437502E+00
   -2.7559080248E+00   -2.7504936580E+00   -2.7451005240E+00   -2.7397284982E+00
   -2.7343774569E+00   -2.7290472774E+00   -2.7237378379E+00   -2.7184490177E+00
   -2.7131806967E+00   -2.7079327562E+00   -2.7027050780E+00   -2.6974975450E+00
   -2.6923100410E+00   -2.6871424507E+00   -2.6819946596E+00   -2.6768665542E+00
   -2.6717580217E+00   -2.6666689503E+00   -2.6615992291E+00   -2.6565487478E+00
   -2.6515173971E+00   -2.6465050686E+00   -2.6415116545E+00   -2.6365370481E+00
   -2.6315811432E+00   -2.6266438346E+00   -2.6217250179E+00   -2.6168245892E+00