<UPF version="2.0.1">
  <PP_INFO>

 This pseudopotential file has been produced using the code
 ONCVPSP  (Optimized Norm-Conservinng Vanderbilt PSeudopotential)
 fully-relativistic version 4.0.1 06/04/2019 by D. R. Hamann
 The code is available through a link at URL www.mat-simresearch.com.
 Documentation with the package provides a full discription of the
 input data below.


 While it is not required under the terms of the GNU GPL, it is
 suggested that you cite D. R. Hamann, Phys. Rev. B 88, 085117 (2013)
 in any publication using these pseudopotentials.

    <PP_INPUTFILE>
# ATOM AND REFERENCE CONFIGURATION
# atsym  z   nc   nv     iexc    psfile
  F  9.00    1    2       3      upf
#
#   n    l    f        energy (Ha)
    1    0    2.00
    2    0    2.00
    2    1    5.00
#
# PSEUDOPOTENTIAL AND OPTIMIZATION
# lmax
    2
#
#   l,   rc,     ep,   ncon, nbas, qcut
    0   1.30000  -1.10000    4    8   8.60000
    1   1.45000  -0.41000    4    8   9.00000
    2   1.60000   0.15000    4    8   5.80000
#
# LOCAL POTENTIAL
# lloc, lpopt,  rc(5),   dvloc0
    4    5   0.95000      0.00000
#
# VANDERBILT-KLEINMAN-BYLANDER PROJECTORs
# l, nproj, debl
    0    2   1.50000
    1    2   1.50000
    2    1   2.00000
#
# MODEL CORE CHARGE
# icmod, fcfact, rcfact
    3   2.50000   1.85000
#
# LOG DERIVATIVE ANALYSIS
# epsh1, epsh2, depsh
  -12.00   12.00    0.02
#
# OUTPUT GRID
# rlmax, drl
    6.00    0.01
#
# TEST CONFIGURATIONS
# ncnf
    0
# nvcnf
#   n    l    f
    </PP_INPUTFILE>
  </PP_INFO>
  <!--                               -->
  <!-- END OF HUMAN READABLE SECTION -->
  <!--                               -->
    <PP_HEADER
       generated="Generated using ONCVPSP code by D. R. Hamann"
       author="anonymous"
       date="220414"
       comment=""
       element="F "
       pseudo_type="NC"
       relativistic="full"
       is_ultrasoft="F"
       is_paw="F"
       is_coulomb="F"
       has_so="T"
       has_wfc="F"
       has_gipaw="F"
       core_correction="T"
       functional="PZ"
       z_valence="    7.00"
       total_psenergy="  -4.76974712398E+01"
       rho_cutoff="   8.27000000000E+00"
       l_max="2"
       l_local="-1"
       mesh_size="   828"
       number_of_wfc="3"
       number_of_proj="8"/>
 <PP_MESH>
   <PP_R type="real"  size=" 828" columns="8">
    0.0000    0.0100    0.0200    0.0300    0.0400    0.0500    0.0600    0.0700
    0.0800    0.0900    0.1000    0.1100    0.1200    0.1300    0.1400    0.1500
    0.1600    0.1700    0.1800    0.1900    0.2000    0.2100    0.2200    0.2300
    0.2400    0.2500    0.2600    0.2700    0.2800    0.2900    0.3000    0.3100
    0.3200    0.3300    0.3400    0.3500    0.3600    0.3700    0.3800    0.3900
    0.4000    0.4100    0.4200    0.4300    0.4400    0.4500    0.4600    0.4700
    0.4800    0.4900    0.5000    0.5100    0.5200    0.5300    0.5400    0.5500
    0.5600    0.5700    0.5800    0.5900    0.6000    0.6100    0.6200    0.6300
    0.6400    0.6500    0.6600    0.6700    0.6800    0.6900    0.7000    0.7100
    0.7200    0.7300    0.7400    0.7500    0.7600    0.7700    0.7800    0.7900
    0.8000    0.8100    0.8200    0.8300    0.8400    0.8500    0.8600    0.8700
    0.8800    0.8900    0.9000    0.9100    0.9200    0.9300    0.9400    0.9500
    0.9600    0.9700    0.9800    0.9900    1.0000    1.0100    1.0200    1.0300
    1.0400    1.0500    1.0600    1.0700    1.0800    1.0900    1.1000    1.1100
    1.1200    1.1300    1.1400    1.1500    1.1600    1.1700    1.1800    1.1900
    1.2000    1.2100    1.2200    1.2300    1.2400    1.2500    1.2600    1.2700
    1.2800    1.2900    1.3000    1.3100    1.3200    1.3300    1.3400    1.3500
    1.3600    1.3700    1.3800    1.3900    1.4000    1.4100    1.4200    1.4300
    1.4400    1.4500    1.4600    1.4700    1.4800    1.4900    1.5000    1.5100
    1.5200    1.5300    1.5400    1.5500    1.5600    1.5700    1.5800    1.5900
    1.6000    1.6100    1.6200    1.6300    1.6400    1.6500    1.6600    1.6700
    1.6800    1.6900    1.7000    1.7100    1.7200    1.7300    1.7400    1.7500
    1.7600    1.7700    1.7800    1.7900    1.8000    1.8100    1.8200    1.8300
    1.8400    1.8500    1.8600    1.8700    1.8800    1.8900    1.9000    1.9100
    1.9200    1.9300    1.9400    1.9500    1.9600    1.9700    1.9800    1.9900
    2.0000    2.0100    2.0200    2.0300    2.0400    2.0500    2.0600    2.0700
    2.0800    2.0900    2.1000    2.1100    2.1200    2.1300    2.1400    2.1500
    2.1600    2.1700    2.1800    2.1900    2.2000    2.2100    2.2200    2.2300
    2.2400    2.2500    2.2600    2.2700    2.2800    2.2900    2.3000    2.3100
    2.3200    2.3300    2.3400    2.3500    2.3600    2.3700    2.3800    2.3900
    2.4000    2.4100    2.4200    2.4300    2.4400    2.4500    2.4600    2.4700
    2.4800    2.4900    2.5000    2.5100    2.5200    2.5300    2.5400    2.5500
    2.5600    2.5700    2.5800    2.5900    2.6000    2.6100    2.6200    2.6300
    2.6400    2.6500    2.6600    2.6700    2.6800    2.6900    2.7000    2.7100
    2.7200    2.7300    2.7400    2.7500    2.7600    2.7700    2.7800    2.7900
    2.8000    2.8100    2.8200    2.8300    2.8400    2.8500    2.8600    2.8700
    2.8800    2.8900    2.9000    2.9100    2.9200    2.9300    2.9400    2.9500
    2.9600    2.9700    2.9800    2.9900    3.0000    3.0100    3.0200    3.0300
    3.0400    3.0500    3.0600    3.0700    3.0800    3.0900    3.1000    3.1100
    3.1200    3.1300    3.1400    3.1500    3.1600    3.1700    3.1800    3.1900
    3.2000    3.2100    3.2200    3.2300    3.2400    3.2500    3.2600    3.2700
    3.2800    3.2900    3.3000    3.3100    3.3200    3.3300    3.3400    3.3500
    3.3600    3.3700    3.3800    3.3900    3.4000    3.4100    3.4200    3.4300
    3.4400    3.4500    3.4600    3.4700    3.4800    3.4900    3.5000    3.5100
    3.5200    3.5300    3.5400    3.5500    3.5600    3.5700    3.5800    3.5900
    3.6000    3.6100    3.6200    3.6300    3.6400    3.6500    3.6600    3.6700
    3.6800    3.6900    3.7000    3.7100    3.7200    3.7300    3.7400    3.7500
    3.7600    3.7700    3.7800    3.7900    3.8000    3.8100    3.8200    3.8300
    3.8400    3.8500    3.8600    3.8700    3.8800    3.8900    3.9000    3.9100
    3.9200    3.9300    3.9400    3.9500    3.9600    3.9700    3.9800    3.9900
    4.0000    4.0100    4.0200    4.0300    4.0400    4.0500    4.0600    4.0700
    4.0800    4.0900    4.1000    4.1100    4.1200    4.1300    4.1400    4.1500
    4.1600    4.1700    4.1800    4.1900    4.2000    4.2100    4.2200    4.2300
    4.2400    4.2500    4.2600    4.2700    4.2800    4.2900    4.3000    4.3100
    4.3200    4.3300    4.3400    4.3500    4.3600    4.3700    4.3800    4.3900
    4.4000    4.4100    4.4200    4.4300    4.4400    4.4500    4.4600    4.4700
    4.4800    4.4900    4.5000    4.5100    4.5200    4.5300    4.5400    4.5500
    4.5600    4.5700    4.5800    4.5900    4.6000    4.6100    4.6200    4.6300
    4.6400    4.6500    4.6600    4.6700    4.6800    4.6900    4.7000    4.7100
    4.7200    4.7300    4.7400    4.7500    4.7600    4.7700    4.7800    4.7900
    4.8000    4.8100    4.8200    4.8300    4.8400    4.8500    4.8600    4.8700
    4.8800    4.8900    4.9000    4.9100    4.9200    4.9300    4.9400    4.9500
    4.9600    4.9700    4.9800    4.9900    5.0000    5.0100    5.0200    5.0300
    5.0400    5.0500    5.0600    5.0700    5.0800    5.0900    5.1000    5.1100
    5.1200    5.1300    5.1400    5.1500    5.1600    5.1700    5.1800    5.1900
    5.2000    5.2100    5.2200    5.2300    5.2400    5.2500    5.2600    5.2700
    5.2800    5.2900    5.3000    5.3100    5.3200    5.3300    5.3400    5.3500
    5.3600    5.3700    5.3800    5.3900    5.4000    5.4100    5.4200    5.4300
    5.4400    5.4500    5.4600    5.4700    5.4800    5.4900    5.5000    5.5100
    5.5200    5.5300    5.5400    5.5500    5.5600    5.5700    5.5800    5.5900
    5.6000    5.6100    5.6200    5.6300    5.6400    5.6500    5.6600    5.6700
    5.6800    5.6900    5.7000    5.7100    5.7200    5.7300    5.7400    5.7500
    5.7600    5.7700    5.7800    5.7900    5.8000    5.8100    5.8200    5.8300
    5.8400    5.8500    5.8600    5.8700    5.8800    5.8900    5.9000    5.9100
    5.9200    5.9300    5.9400    5.9500    5.9600    5.9700    5.9800    5.9900
    6.0000    6.0100    6.0200    6.0300    6.0400    6.0500    6.0600    6.0700
    6.0800    6.0900    6.1000    6.1100    6.1200    6.1300    6.1400    6.1500
    6.1600    6.1700    6.1800    6.1900    6.2000    6.2100    6.2200    6.2300
    6.2400    6.2500    6.2600    6.2700    6.2800    6.2900    6.3000    6.3100
    6.3200    6.3300    6.3400    6.3500    6.3600    6.3700    6.3800    6.3900
    6.4000    6.4100    6.4200    6.4300    6.4400    6.4500    6.4600    6.4700
    6.4800    6.4900    6.5000    6.5100    6.5200    6.5300    6.5400    6.5500
    6.5600    6.5700    6.5800    6.5900    6.6000    6.6100    6.6200    6.6300
    6.6400    6.6500    6.6600    6.6700    6.6800    6.6900    6.7000    6.7100
    6.7200    6.7300    6.7400    6.7500    6.7600    6.7700    6.7800    6.7900
    6.8000    6.8100    6.8200    6.8300    6.8400    6.8500    6.8600    6.8700
    6.8800    6.8900    6.9000    6.9100    6.9200    6.9300    6.9400    6.9500
    6.9600    6.9700    6.9800    6.9900    7.0000    7.0100    7.0200    7.0300
    7.0400    7.0500    7.0600    7.0700    7.0800    7.0900    7.1000    7.1100
    7.1200    7.1300    7.1400    7.1500    7.1600    7.1700    7.1800    7.1900
    7.2000    7.2100    7.2200    7.2300    7.2400    7.2500    7.2600    7.2700
    7.2800    7.2900    7.3000    7.3100    7.3200    7.3300    7.3400    7.3500
    7.3600    7.3700    7.3800    7.3900    7.4000    7.4100    7.4200    7.4300
    7.4400    7.4500    7.4600    7.4700    7.4800    7.4900    7.5000    7.5100
    7.5200    7.5300    7.5400    7.5500    7.5600    7.5700    7.5800    7.5900
    7.6000    7.6100    7.6200    7.6300    7.6400    7.6500    7.6600    7.6700
    7.6800    7.6900    7.7000    7.7100    7.7200    7.7300    7.7400    7.7500
    7.7600    7.7700    7.7800    7.7900    7.8000    7.8100    7.8200    7.8300
    7.8400    7.8500    7.8600    7.8700    7.8800    7.8900    7.9000    7.9100
    7.9200    7.9300    7.9400    7.9500    7.9600    7.9700    7.9800    7.9900
    8.0000    8.0100    8.0200    8.0300    8.0400    8.0500    8.0600    8.0700
    8.0800    8.0900    8.1000    8.1100    8.1200    8.1300    8.1400    8.1500
    8.1600    8.1700    8.1800    8.1900    8.2000    8.2100    8.2200    8.2300
    8.2400    8.2500    8.2600    8.2700
   </PP_R>
   <PP_RAB type="real"  size=" 828" columns="8">
    0.0100    0.0100    0.0100    0.0100    0.0100    0.0100    0.0100    0.0100
    0.0100    0.0100    0.0100    0.0100    0.0100    0.0100    0.0100    0.0100
    0.0100    0.0100    0.0100    0.0100    0.0100    0.0100    0.0100    0.0100
    0.0100    0.0100    0.0100    0.0100    0.0100    0.0100    0.0100    0.0100
    0.0100    0.0100    0.0100    0.0100    0.0100    0.0100    0.0100    0.0100
    0.0100    0.0100    0.0100    0.0100    0.0100    0.0100    0.0100    0.0100
    0.0100    0.0100    0.0100    0.0100    0.0100    0.0100    0.0100    0.0100
    0.0100    0.0100    0.0100    0.0100    0.0100    0.0100    0.0100    0.0100
    0.0100    0.0100    0.0100    0.0100    0.0100    0.0100    0.0100    0.0100
    0.0100    0.0100    0.0100    0.0100    0.0100    0.0100    0.0100    0.0100
    0.0100    0.0100    0.0100    0.0100    0.0100    0.0100    0.0100    0.0100
    0.0100    0.0100    0.0100    0.0100    0.0100    0.0100    0.0100    0.0100
    0.0100    0.0100    0.0100    0.0100    0.0100    0.0100    0.0100    0.0100
    0.0100    0.0100    0.0100    0.0100    0.0100    0.0100    0.0100    0.0100
    0.0100    0.0100    0.0100    0.0100    0.0100    0.0100    0.0100    0.0100
    0.0100    0.0100    0.0100    0.0100    0.0100    0.0100    0.0100    0.0100
    0.0100    0.0100    0.0100    0.0100    0.0100    0.0100    0.0100    0.0100
    0.0100    0.0100    0.0100    0.0100    0.0100    0.0100    0.0100    0.0100
    0.0100    0.0100    0.0100    0.0100    0.0100    0.0100    0.0100    0.0100
    0.0100    0.0100    0.0100    0.0100    0.0100    0.0100    0.0100    0.0100
    0.0100    0.0100    0.0100    0.0100    0.0100    0.0100    0.0100    0.0100
    0.0100    0.0100    0.0100    0.0100    0.0100    0.0100    0.0100    0.0100
    0.0100    0.0100    0.0100    0.0100    0.0100    0.0100    0.0100    0.0100
    0.0100    0.0100    0.0100    0.0100    0.0100    0.0100    0.0100    0.0100
    0.0100    0.0100    0.0100    0.0100    0.0100    0.0100    0.0100    0.0100
    0.0100    0.0100    0.0100    0.0100    0.0100    0.0100    0.0100    0.0100
    0.0100    0.0100    0.0100    0.0100    0.0100    0.0100    0.0100    0.0100
    0.0100    0.0100    0.0100    0.0100    0.0100    0.0100    0.0100    0.0100
    0.0100    0.0100    0.0100    0.0100    0.0100    0.0100    0.0100    0.0100
    0.0100    0.0100    0.0100    0.0100    0.0100    0.0100    0.0100    0.0100
    0.0100    0.0100    0.0100    0.0100    0.0100    0.0100    0.0100    0.0100
    0.0100    0.0100    0.0100    0.0100    0.0100    0.0100    0.0100    0.0100
    0.0100    0.0100    0.0100    0.0100    0.0100    0.0100    0.0100    0.0100
    0.0100    0.0100    0.0100    0.0100    0.0100    0.0100    0.0100    0.0100
    0.0100    0.0100    0.0100    0.0100    0.0100    0.0100    0.0100    0.0100
    0.0100    0.0100    0.0100    0.0100    0.0100    0.0100    0.0100    0.0100
    0.0100    0.0100    0.0100    0.0100    0.0100    0.0100    0.0100    0.0100
    0.0100    0.0100    0.0100    0.0100    0.0100    0.0100    0.0100    0.0100
    0.0100    0.0100    0.0100    0.0100    0.0100    0.0100    0.0100    0.0100
    0.0100    0.0100    0.0100    0.0100    0.0100    0.0100    0.0100    0.0100
    0.0100    0.0100    0.0100    0.0100    0.0100    0.0100    0.0100    0.0100
    0.0100    0.0100    0.0100    0.0100    0.0100    0.0100    0.0100    0.0100
    0.0100    0.0100    0.0100    0.0100    0.0100    0.0100    0.0100    0.0100
    0.0100    0.0100    0.0100    0.0100    0.0100    0.0100    0.0100    0.0100
    0.0100    0.0100    0.0100    0.0100    0.0100    0.0100    0.0100    0.0100
    0.0100    0.0100    0.0100    0.0100    0.0100    0.0100    0.0100    0.0100
    0.0100    0.0100    0.0100    0.0100    0.0100    0.0100    0.0100    0.0100
    0.0100    0.0100    0.0100    0.0100    0.0100    0.0100    0.0100    0.0100
    0.0100    0.0100    0.0100    0.0100    0.0100    0.0100    0.0100    0.0100
    0.0100    0.0100    0.0100    0.0100    0.0100    0.0100    0.0100    0.0100
    0.0100    0.0100    0.0100    0.0100    0.0100    0.0100    0.0100    0.0100
    0.0100    0.0100    0.0100    0.0100    0.0100    0.0100    0.0100    0.0100
    0.0100    0.0100    0.0100    0.0100    0.0100    0.0100    0.0100    0.0100
    0.0100    0.0100    0.0100    0.0100    0.0100    0.0100    0.0100    0.0100
    0.0100    0.0100    0.0100    0.0100    0.0100    0.0100    0.0100    0.0100
    0.0100    0.0100    0.0100    0.0100    0.0100    0.0100    0.0100    0.0100
    0.0100    0.0100    0.0100    0.0100    0.0100    0.0100    0.0100    0.0100
    0.0100    0.0100    0.0100    0.0100    0.0100    0.0100    0.0100    0.0100
    0.0100    0.0100    0.0100    0.0100    0.0100    0.0100    0.0100    0.0100
    0.0100    0.0100    0.0100    0.0100    0.0100    0.0100    0.0100    0.0100
    0.0100    0.0100    0.0100    0.0100    0.0100    0.0100    0.0100    0.0100
    0.0100    0.0100    0.0100    0.0100    0.0100    0.0100    0.0100    0.0100
    0.0100    0.0100    0.0100    0.0100    0.0100    0.0100    0.0100    0.0100
    0.0100    0.0100    0.0100    0.0100    0.0100    0.0100    0.0100    0.0100
    0.0100    0.0100    0.0100    0.0100    0.0100    0.0100    0.0100    0.0100
    0.0100    0.0100    0.0100    0.0100    0.0100    0.0100    0.0100    0.0100
    0.0100    0.0100    0.0100    0.0100    0.0100    0.0100    0.0100    0.0100
    0.0100    0.0100    0.0100    0.0100    0.0100    0.0100    0.0100    0.0100
    0.0100    0.0100    0.0100    0.0100    0.0100    0.0100    0.0100    0.0100
    0.0100    0.0100    0.0100    0.0100    0.0100    0.0100    0.0100    0.0100
    0.0100    0.0100    0.0100    0.0100    0.0100    0.0100    0.0100    0.0100
    0.0100    0.0100    0.0100    0.0100    0.0100    0.0100    0.0100    0.0100
    0.0100    0.0100    0.0100    0.0100    0.0100    0.0100    0.0100    0.0100
    0.0100    0.0100    0.0100    0.0100    0.0100    0.0100    0.0100    0.0100
    0.0100    0.0100    0.0100    0.0100    0.0100    0.0100    0.0100    0.0100
    0.0100    0.0100    0.0100    0.0100    0.0100    0.0100    0.0100    0.0100
    0.0100    0.0100    0.0100    0.0100    0.0100    0.0100    0.0100    0.0100
    0.0100    0.0100    0.0100    0.0100    0.0100    0.0100    0.0100    0.0100
    0.0100    0.0100    0.0100    0.0100    0.0100    0.0100    0.0100    0.0100
    0.0100    0.0100    0.0100    0.0100    0.0100    0.0100    0.0100    0.0100
    0.0100    0.0100    0.0100    0.0100    0.0100    0.0100    0.0100    0.0100
    0.0100    0.0100    0.0100    0.0100    0.0100    0.0100    0.0100    0.0100
    0.0100    0.0100    0.0100    0.0100    0.0100    0.0100    0.0100    0.0100
    0.0100    0.0100    0.0100    0.0100    0.0100    0.0100    0.0100    0.0100
    0.0100    0.0100    0.0100    0.0100    0.0100    0.0100    0.0100    0.0100
    0.0100    0.0100    0.0100    0.0100    0.0100    0.0100    0.0100    0.0100
    0.0100    0.0100    0.0100    0.0100    0.0100    0.0100    0.0100    0.0100
    0.0100    0.0100    0.0100    0.0100    0.0100    0.0100    0.0100    0.0100
    0.0100    0.0100    0.0100    0.0100    0.0100    0.0100    0.0100    0.0100
    0.0100    0.0100    0.0100    0.0100    0.0100    0.0100    0.0100    0.0100
    0.0100    0.0100    0.0100    0.0100    0.0100    0.0100    0.0100    0.0100
    0.0100    0.0100    0.0100    0.0100    0.0100    0.0100    0.0100    0.0100
    0.0100    0.0100    0.0100    0.0100    0.0100    0.0100    0.0100    0.0100
    0.0100    0.0100    0.0100    0.0100    0.0100    0.0100    0.0100    0.0100
    0.0100    0.0100    0.0100    0.0100    0.0100    0.0100    0.0100    0.0100
    0.0100    0.0100    0.0100    0.0100    0.0100    0.0100    0.0100    0.0100
    0.0100    0.0100    0.0100    0.0100    0.0100    0.0100    0.0100    0.0100
    0.0100    0.0100    0.0100    0.0100    0.0100    0.0100    0.0100    0.0100
    0.0100    0.0100    0.0100    0.0100    0.0100    0.0100    0.0100    0.0100
    0.0100    0.0100    0.0100    0.0100    0.0100    0.0100    0.0100    0.0100
    0.0100    0.0100    0.0100    0.0100    0.0100    0.0100    0.0100    0.0100
    0.0100    0.0100    0.0100    0.0100    0.0100    0.0100    0.0100    0.0100
    0.0100    0.0100    0.0100    0.0100    0.0100    0.0100    0.0100    0.0100
    0.0100    0.0100    0.0100    0.0100
   </PP_RAB>
 </PP_MESH>
  <PP_LOCAL type="real"  size=" 828" columns="4">
   -3.0553057213E+01   -3.0550400261E+01   -3.0542429211E+01   -3.0529143524E+01
   -3.0510542339E+01   -3.0486624538E+01   -3.0457388835E+01   -3.0422833889E+01
   -3.0382958438E+01   -3.0337761455E+01   -3.0287242331E+01   -3.0231401074E+01
   -3.0170238526E+01   -3.0103756604E+01   -3.0031958546E+01   -2.9954849186E+01
   -2.9872435231E+01   -2.9784725550E+01   -2.9691731478E+01   -2.9593467120E+01
   -2.9489949663E+01   -2.9381199690E+01   -2.9267241494E+01   -2.9148103393E+01
   -2.9023818030E+01   -2.8894422681E+01   -2.8759959542E+01   -2.8620476009E+01
   -2.8476024943E+01   -2.8326664917E+01   -2.8172460448E+01   -2.8013482201E+01
   -2.7849807179E+01   -2.7681518874E+01   -2.7508707406E+01   -2.7331469621E+01
   -2.7149909161E+01   -2.6964136507E+01   -2.6774268980E+01   -2.6580430715E+01
   -2.6382752593E+01   -2.6181372146E+01   -2.5976433418E+01   -2.5768086796E+01
   -2.5556488804E+01   -2.5341801865E+01   -2.5124194029E+01   -2.4903838667E+01
   -2.4680914141E+01   -2.4455603442E+01   -2.4228093804E+01   -2.3998576293E+01
   -2.3767245377E+01   -2.3534298473E+01   -2.3299935490E+01   -2.3064358341E+01
   -2.2827770459E+01   -2.2590376297E+01   -2.2352380829E+01   -2.2113989037E+01
   -2.1875405409E+01   -2.1636833427E+01   -2.1398475069E+01   -2.1160530306E+01
   -2.0923196607E+01   -2.0686668458E+01   -2.0451136881E+01   -2.0216788967E+01
   -1.9983807418E+01   -1.9752370101E+01   -1.9522649611E+01   -1.9294812848E+01
   -1.9069020602E+01   -1.8845427155E+01   -1.8624179887E+01   -1.8405418898E+01
   -1.8189276640E+01   -1.7975877558E+01   -1.7765337742E+01   -1.7557764586E+01
   -1.7353256454E+01   -1.7151902360E+01   -1.6953781649E+01   -1.6758963683E+01
   -1.6567507539E+01   -1.6379461707E+01   -1.6194863787E+01   -1.6013740202E+01
   -1.5836105896E+01   -1.5661964052E+01   -1.5491305793E+01   -1.5324109891E+01
   -1.5160342480E+01   -1.4999956755E+01   -1.4842892679E+01   -1.4689076686E+01
   -1.4538421470E+01   -1.4390830428E+01   -1.4246208098E+01   -1.4104462647E+01
   -1.3965505743E+01   -1.3829252418E+01   -1.3695620946E+01   -1.3564532723E+01
   -1.3435912156E+01   -1.3309686559E+01   -1.3185786049E+01   -1.3064143448E+01
   -1.2944694193E+01   -1.2827376245E+01   -1.2712129997E+01   -1.2598898190E+01
   -1.2487625830E+01   -1.2378260106E+01   -1.2270750305E+01   -1.2165047647E+01
   -1.2061106690E+01   -1.1958888087E+01   -1.1858365642E+01   -1.1759421087E+01
   -1.1662086848E+01   -1.1566306226E+01   -1.1472042342E+01   -1.1379260011E+01
   -1.1287925320E+01   -1.1198005645E+01   -1.1109469587E+01   -1.1022286904E+01
   -1.0936428451E+01   -1.0851866117E+01   -1.0768572765E+01   -1.0686522172E+01
   -1.0605688947E+01   -1.0526048427E+01   -1.0447576622E+01   -1.0370250167E+01
   -1.0294046276E+01   -1.0218942699E+01   -1.0144917683E+01   -1.0071949930E+01
   -1.0000018568E+01   -9.9291031130E+00   -9.8591834427E+00   -9.7902397674E+00
   -9.7222526063E+00   -9.6552027657E+00   -9.5890713203E+00   -9.5238396218E+00
   -9.4594894103E+00   -9.3960029224E+00   -9.3333628696E+00   -9.2715524249E+00
   -9.2105552078E+00   -9.1503552694E+00   -9.0909370783E+00   -9.0322855069E+00
   -8.9743858179E+00   -8.9172236517E+00   -8.8607850140E+00   -8.8050562634E+00
   -8.7500241003E+00   -8.6956755560E+00   -8.6419979814E+00   -8.5889790374E+00
   -8.5366066849E+00   -8.4848691753E+00   -8.4337550419E+00   -8.3832530911E+00
   -8.3333523941E+00   -8.2840422794E+00   -8.2353123249E+00   -8.1871523509E+00
   -8.1395524134E+00   -8.0925027971E+00   -8.0459940093E+00   -8.0000167735E+00
   -7.9545620239E+00   -7.9096208993E+00   -7.8651847376E+00   -7.8212450708E+00
   -7.7777936193E+00   -7.7348222871E+00   -7.6923231568E+00   -7.6502884849E+00
   -7.6087106970E+00   -7.5675823833E+00   -7.5268962941E+00   -7.4866453355E+00
   -7.4468225743E+00   -7.4074212220E+00   -7.3684346243E+00   -7.3298562666E+00
   -7.2916797702E+00   -7.2538988884E+00   -7.2165075033E+00   -7.1794996228E+00
   -7.1428693766E+00   -7.1066110139E+00   -7.0707189002E+00   -7.0351875140E+00
   -7.0000114442E+00   -6.9651853877E+00   -6.9307041461E+00   -6.8965626236E+00
   -6.8627558243E+00   -6.8292788497E+00   -6.7961268965E+00   -6.7632952542E+00
   -6.7307793029E+00   -6.6985745111E+00   -6.6666764335E+00   -6.6350807093E+00
   -6.6037830599E+00   -6.5727792870E+00   -6.5420652707E+00   -6.5116369680E+00
   -6.4814904104E+00   -6.4516217030E+00   -6.4220270220E+00   -6.3927026136E+00
   -6.3636447923E+00   -6.3348499391E+00   -6.3063145005E+00   -6.2780349865E+00
   -6.2500079695E+00   -6.2222300829E+00   -6.1946980195E+00   -6.1674085307E+00
   -6.1403584246E+00   -6.1135445651E+00   -6.0869638708E+00   -6.0606133135E+00
   -6.0344899173E+00   -6.0085907573E+00   -5.9829129587E+00   -5.9574536956E+00
   -5.9322101899E+00   -5.9071797106E+00   -5.8823595724E+00   -5.8577471350E+00
   -5.8333398021E+00   -5.8091350206E+00   -5.7851302795E+00   -5.7613231091E+00
   -5.7377110802E+00   -5.7142918034E+00   -5.6910629280E+00   -5.6680221414E+00
   -5.6451671684E+00   -5.6224957701E+00   -5.6000057437E+00   -5.5776949214E+00
   -5.5555611698E+00   -5.5336023892E+00   -5.5118165130E+00   -5.4902015071E+00
   -5.4687553690E+00   -5.4474761275E+00   -5.4263618420E+00   -5.4054106016E+00
   -5.3846205253E+00   -5.3639897604E+00   -5.3435164827E+00   -5.3231988960E+00
   -5.3030352308E+00   -5.2830237447E+00   -5.2631627214E+00   -5.2434504703E+00
   -5.2238853260E+00   -5.2044656479E+00   -5.1851898197E+00   -5.1660562489E+00
   -5.1470633666E+00   -5.1282096267E+00   -5.1094935057E+00   -5.0909135024E+00
   -5.0724681371E+00   -5.0541559518E+00   -5.0359755092E+00   -5.0179253926E+00
   -5.0000042059E+00   -4.9822105723E+00   -4.9645431351E+00   -4.9470005565E+00
   -4.9295815174E+00   -4.9122847176E+00   -4.8951088747E+00   -4.8780527243E+00
   -4.8611150198E+00   -4.8442945314E+00   -4.8275900468E+00   -4.8110003698E+00
   -4.7945243210E+00   -4.7781607370E+00   -4.7619084702E+00   -4.7457663885E+00
   -4.7297333751E+00   -4.7138083284E+00   -4.6979901614E+00   -4.6822778018E+00
   -4.6666701915E+00   -4.6511662865E+00   -4.6357650565E+00   -4.6204654850E+00
   -4.6052665689E+00   -4.5901673179E+00   -4.5751667551E+00   -4.5602639160E+00
   -4.5454578487E+00   -4.5307476138E+00   -4.5161322839E+00   -4.5016109433E+00
   -4.4871826885E+00   -4.4728466271E+00   -4.4586018784E+00   -4.4444475728E+00
   -4.4303828515E+00   -4.4164068667E+00   -4.4025187814E+00   -4.3887177689E+00
   -4.3750030129E+00   -4.3613737072E+00   -4.3478290557E+00   -4.3343682722E+00
   -4.3209905800E+00   -4.3076952123E+00   -4.2944814113E+00   -4.2813484289E+00
   -4.2682955257E+00   -4.2553219716E+00   -4.2424270453E+00   -4.2296100340E+00
   -4.2168702337E+00   -4.2042069489E+00   -4.1916194922E+00   -4.1791071847E+00
   -4.1666693553E+00   -4.1543053410E+00   -4.1420144866E+00   -4.1297961448E+00
   -4.1176496756E+00   -4.1055744469E+00   -4.0935698336E+00   -4.0816352181E+00
   -4.0697699901E+00   -4.0579735461E+00   -4.0462452896E+00   -4.0345846313E+00
   -4.0229909884E+00   -4.0114637848E+00   -4.0000024510E+00   -3.9886064240E+00
   -3.9772751472E+00   -3.9660080704E+00   -3.9548046494E+00   -3.9436643464E+00
   -3.9325866295E+00   -3.9215709726E+00   -3.9106168558E+00   -3.8997237648E+00
   -3.8888911911E+00   -3.8781186316E+00   -3.8674055892E+00   -3.8567515718E+00
   -3.8461560930E+00   -3.8356186718E+00   -3.8251388321E+00   -3.8147161033E+00
   -3.8043500199E+00   -3.7940401212E+00   -3.7837859518E+00   -3.7735870609E+00
   -3.7634430029E+00   -3.7533533367E+00   -3.7433176259E+00   -3.7333354390E+00
   -3.7234063489E+00   -3.7135299330E+00   -3.7037057734E+00   -3.6939334563E+00
   -3.6842125725E+00   -3.6745427171E+00   -3.6649234892E+00   -3.6553544923E+00
   -3.6458353339E+00   -3.6363656258E+00   -3.6269449836E+00   -3.6175730269E+00
   -3.6082493792E+00   -3.5989736682E+00   -3.5897455249E+00   -3.5805645844E+00
   -3.5714304855E+00   -3.5623428706E+00   -3.5533013858E+00   -3.5443056806E+00
   -3.5353554084E+00   -3.5264502257E+00   -3.5175897927E+00   -3.5087737729E+00
   -3.5000018333E+00   -3.4912736440E+00   -3.4825888786E+00   -3.4739472138E+00
   -3.4653483296E+00   -3.4567919090E+00   -3.4482776382E+00   -3.4398052067E+00
   -3.4313743067E+00   -3.4229846337E+00   -3.4146358859E+00   -3.4063277646E+00
   -3.3980599741E+00   -3.3898322213E+00   -3.3816442161E+00   -3.3734956713E+00
   -3.3653863021E+00   -3.3573158268E+00   -3.3492839663E+00   -3.3412904440E+00
   -3.3333349861E+00   -3.3254173214E+00   -3.3175371812E+00   -3.3096942994E+00
   -3.3018884123E+00   -3.2941192588E+00   -3.2863865803E+00   -3.2786901204E+00
   -3.2710296253E+00   -3.2634048434E+00   -3.2558155257E+00   -3.2482614253E+00
   -3.2407422975E+00   -3.2332579002E+00   -3.2258079932E+00   -3.2183923386E+00
   -3.2110107008E+00   -3.2036628463E+00   -3.1963485437E+00   -3.1890675636E+00
   -3.1818196789E+00   -3.1746046644E+00   -3.1674222971E+00   -3.1602723559E+00
   -3.1531546216E+00   -3.1460688771E+00   -3.1390149073E+00   -3.1319924988E+00
   -3.1250014405E+00   -3.1180415227E+00   -3.1111125379E+00   -3.1042142803E+00
   -3.0973465460E+00   -3.0905091328E+00   -3.0837018404E+00   -3.0769244702E+00
   -3.0701768253E+00   -3.0634587106E+00   -3.0567699326E+00   -3.0501102997E+00
   -3.0434796216E+00   -3.0368777101E+00   -3.0303043784E+00   -3.0237594411E+00
   -3.0172427148E+00   -3.0107540174E+00   -3.0042931686E+00   -2.9978599893E+00
   -2.9914543022E+00   -2.9850759316E+00   -2.9787247029E+00   -2.9724004434E+00
   -2.9661029816E+00   -2.9598321475E+00   -2.9535877727E+00   -2.9473696900E+00
   -2.9411777337E+00   -2.9350117394E+00   -2.9288715444E+00   -2.9227569869E+00
   -2.9166679067E+00   -2.9106041449E+00   -2.9045655440E+00   -2.8985519477E+00
   -2.8925632009E+00   -2.8865991500E+00   -2.8806596426E+00   -2.8747445274E+00
   -2.8688536544E+00   -2.8629868750E+00   -2.8571440417E+00   -2.8513250081E+00
   -2.8455296291E+00   -2.8397577608E+00   -2.8340092603E+00   -2.8282839862E+00
   -2.8225817978E+00   -2.8169025559E+00   -2.8112461222E+00   -2.8056123595E+00
   -2.8000011320E+00   -2.7944123045E+00   -2.7888457433E+00   -2.7833013155E+00
   -2.7777788894E+00   -2.7722783344E+00   -2.7667995207E+00   -2.7613423196E+00
   -2.7559066036E+00   -2.7504922460E+00   -2.7450991212E+00   -2.7397271046E+00
   -2.7343760723E+00   -2.7290459018E+00   -2.7237364713E+00   -2.7184476599E+00
   -2.7131793478E+00   -2.7079314160E+00   -2.7027037465E+00   -2.6974962222E+00
   -2.6923087268E+00   -2.6871411450E+00   -2.6819933624E+00   -2.6768652654E+00
   -2.6717567413E+00   -2.6666676783E+00   -2.6615979653E+00   -2.6565474922E+00
   -2.6515161497E+00   -2.6465038292E+00   -2.6415104232E+00   -2.6365358248E+00