<UPF version="2.0.1">
  <PP_INFO>

 This pseudopotential file has been produced using the code
 ONCVPSP  (Optimized Norm-Conservinng Vanderbilt PSeudopotential)
 fully-relativistic version 4.0.1 06/04/2019 by D. R. Hamann
 The code is available through a link at URL www.mat-simresearch.com.
 Documentation with the package provides a full discription of the
 input data below.


 While it is not required under the terms of the GNU GPL, it is
 suggested that you cite D. R. Hamann, Phys. Rev. B 88, 085117 (2013)
 in any publication using these pseudopotentials.

    <PP_INPUTFILE>
# ATOM AND REFERENCE CONFIGURATION
# atsym  z   nc   nv     iexc    psfile
  He  2.00    0    1       3      upf
#
#   n    l    f        energy (Ha)
    1    0    2.00
#
# PSEUDOPOTENTIAL AND OPTIMIZATION
# lmax
    1
#
#   l,   rc,     ep,   ncon, nbas, qcut
    0   1.25000  -0.58000    4    8   9.40000
    1   1.13000   0.05000    4    7   9.40000
#
# LOCAL POTENTIAL
# lloc, lpopt,  rc(5),   dvloc0
    4    5   1.00000      0.00000
#
# VANDERBILT-KLEINMAN-BYLANDER PROJECTORs
# l, nproj, debl
    0    2   1.00000
    1    1   1.00000
#
# MODEL CORE CHARGE
# icmod, fcfact, rcfact
    0   0.00000   0.00000
#
# LOG DERIVATIVE ANALYSIS
# epsh1, epsh2, depsh
  -12.00   12.00    0.02
#
# OUTPUT GRID
# rlmax, drl
    6.00    0.01
#
# TEST CONFIGURATIONS
# ncnf
    0
# nvcnf
#   n    l    f
    </PP_INPUTFILE>
  </PP_INFO>
  <!--                               -->
  <!-- END OF HUMAN READABLE SECTION -->
  <!--                               -->
    <PP_HEADER
       generated="Generated using ONCVPSP code by D. R. Hamann"
       author="anonymous"
       date="220414"
       comment=""
       element="He"
       pseudo_type="NC"
       relativistic="full"
       is_ultrasoft="F"
       is_paw="F"
       is_coulomb="F"
       has_so="T"
       has_wfc="F"
       has_gipaw="F"
       core_correction="F"
       functional="PZ"
       z_valence="    2.00"
       total_psenergy="  -5.60990059027E+00"
       rho_cutoff="   7.31000000000E+00"
       l_max="1"
       l_local="-1"
       mesh_size="   732"
       number_of_wfc="1"
       number_of_proj="4"/>
 <PP_MESH>
   <PP_R type="real"  size=" 732" columns="8">
    0.0000    0.0100    0.0200    0.0300    0.0400    0.0500    0.0600    0.0700
    0.0800    0.0900    0.1000    0.1100    0.1200    0.1300    0.1400    0.1500
    0.1600    0.1700    0.1800    0.1900    0.2000    0.2100    0.2200    0.2300
    0.2400    0.2500    0.2600    0.2700    0.2800    0.2900    0.3000    0.3100
    0.3200    0.3300    0.3400    0.3500    0.3600    0.3700    0.3800    0.3900
    0.4000    0.4100    0.4200    0.4300    0.4400    0.4500    0.4600    0.4700
    0.4800    0.4900    0.5000    0.5100    0.5200    0.5300    0.5400    0.5500
    0.5600    0.5700    0.5800    0.5900    0.6000    0.6100    0.6200    0.6300
    0.6400    0.6500    0.6600    0.6700    0.6800    0.6900    0.7000    0.7100
    0.7200    0.7300    0.7400    0.7500    0.7600    0.7700    0.7800    0.7900
    0.8000    0.8100    0.8200    0.8300    0.8400    0.8500    0.8600    0.8700
    0.8800    0.8900    0.9000    0.9100    0.9200    0.9300    0.9400    0.9500
    0.9600    0.9700    0.9800    0.9900    1.0000    1.0100    1.0200    1.0300
    1.0400    1.0500    1.0600    1.0700    1.0800    1.0900    1.1000    1.1100
    1.1200    1.1300    1.1400    1.1500    1.1600    1.1700    1.1800    1.1900
    1.2000    1.2100    1.2200    1.2300    1.2400    1.2500    1.2600    1.2700
    1.2800    1.2900    1.3000    1.3100    1.3200    1.3300    1.3400    1.3500
    1.3600    1.3700    1.3800    1.3900    1.4000    1.4100    1.4200    1.4300
    1.4400    1.4500    1.4600    1.4700    1.4800    1.4900    1.5000    1.5100
    1.5200    1.5300    1.5400    1.5500    1.5600    1.5700    1.5800    1.5900
    1.6000    1.6100    1.6200    1.6300    1.6400    1.6500    1.6600    1.6700
    1.6800    1.6900    1.7000    1.7100    1.7200    1.7300    1.7400    1.7500
    1.7600    1.7700    1.7800    1.7900    1.8000    1.8100    1.8200    1.8300
    1.8400    1.8500    1.8600    1.8700    1.8800    1.8900    1.9000    1.9100
    1.9200    1.9300    1.9400    1.9500    1.9600    1.9700    1.9800    1.9900
    2.0000    2.0100    2.0200    2.0300    2.0400    2.0500    2.0600    2.0700
    2.0800    2.0900    2.1000    2.1100    2.1200    2.1300    2.1400    2.1500
    2.1600    2.1700    2.1800    2.1900    2.2000    2.2100    2.2200    2.2300
    2.2400    2.2500    2.2600    2.2700    2.2800    2.2900    2.3000    2.3100
    2.3200    2.3300    2.3400    2.3500    2.3600    2.3700    2.3800    2.3900
    2.4000    2.4100    2.4200    2.4300    2.4400    2.4500    2.4600    2.4700
    2.4800    2.4900    2.5000    2.5100    2.5200    2.5300    2.5400    2.5500
    2.5600    2.5700    2.5800    2.5900    2.6000    2.6100    2.6200    2.6300
    2.6400    2.6500    2.6600    2.6700    2.6800    2.6900    2.7000    2.7100
    2.7200    2.7300    2.7400    2.7500    2.7600    2.7700    2.7800    2.7900
    2.8000    2.8100    2.8200    2.8300    2.8400    2.8500    2.8600    2.8700
    2.8800    2.8900    2.9000    2.9100    2.9200    2.9300    2.9400    2.9500
    2.9600    2.9700    2.9800    2.9900    3.0000    3.0100    3.0200    3.0300
    3.0400    3.0500    3.0600    3.0700    3.0800    3.0900    3.1000    3.1100
    3.1200    3.1300    3.1400    3.1500    3.1600    3.1700    3.1800    3.1900
    3.2000    3.2100    3.2200    3.2300    3.2400    3.2500    3.2600    3.2700
    3.2800    3.2900    3.3000    3.3100    3.3200    3.3300    3.3400    3.3500
    3.3600    3.3700    3.3800    3.3900    3.4000    3.4100    3.4200    3.4300
    3.4400    3.4500    3.4600    3.4700    3.4800    3.4900    3.5000    3.5100
    3.5200    3.5300    3.5400    3.5500    3.5600    3.5700    3.5800    3.5900
    3.6000    3.6100    3.6200    3.6300    3.6400    3.6500    3.6600    3.6700
    3.6800    3.6900    3.7000    3.7100    3.7200    3.7300    3.7400    3.7500
    3.7600    3.7700    3.7800    3.7900    3.8000    3.8100    3.8200    3.8300
    3.8400    3.8500    3.8600    3.8700    3.8800    3.8900    3.9000    3.9100
    3.9200    3.9300    3.9400    3.9500    3.9600    3.9700    3.9800    3.9900
    4.0000    4.0100    4.0200    4.0300    4.0400    4.0500    4.0600    4.0700
    4.0800    4.0900    4.1000    4.1100    4.1200    4.1300    4.1400    4.1500
    4.1600    4.1700    4.1800    4.1900    4.2000    4.2100    4.2200    4.2300
    4.2400    4.2500    4.2600    4.2700    4.2800    4.2900    4.3000    4.3100
    4.3200    4.3300    4.3400    4.3500    4.3600    4.3700    4.3800    4.3900
    4.4000    4.4100    4.4200    4.4300    4.4400    4.4500    4.4600    4.4700
    4.4800    4.4900    4.5000    4.5100    4.5200    4.5300    4.5400    4.5500
    4.5600    4.5700    4.5800    4.5900    4.6000    4.6100    4.6200    4.6300
    4.6400    4.6500    4.6600    4.6700    4.6800    4.6900    4.7000    4.7100
    4.7200    4.7300    4.7400    4.7500    4.7600    4.7700    4.7800    4.7900
    4.8000    4.8100    4.8200    4.8300    4.8400    4.8500    4.8600    4.8700
    4.8800    4.8900    4.9000    4.9100    4.9200    4.9300    4.9400    4.9500
    4.9600    4.9700    4.9800    4.9900    5.0000    5.0100    5.0200    5.0300
    5.0400    5.0500    5.0600    5.0700    5.0800    5.0900    5.1000    5.1100
    5.1200    5.1300    5.1400    5.1500    5.1600    5.1700    5.1800    5.1900
    5.2000    5.2100    5.2200    5.2300    5.2400    5.2500    5.2600    5.2700
    5.2800    5.2900    5.3000    5.3100    5.3200    5.3300    5.3400    5.3500
    5.3600    5.3700    5.3800    5.3900    5.4000    5.4100    5.4200    5.4300
    5.4400    5.4500    5.4600    5.4700    5.4800    5.4900    5.5000    5.5100
    5.5200    5.5300    5.5400    5.5500    5.5600    5.5700    5.5800    5.5900
    5.6000    5.6100    5.6200    5.6300    5.6400    5.6500    5.6600    5.6700
    5.6800    5.6900    5.7000    5.7100    5.7200    5.7300    5.7400    5.7500
    5.7600    5.7700    5.7800    5.7900    5.8000    5.8100    5.8200    5.8300
    5.8400    5.8500    5.8600    5.8700    5.8800    5.8900    5.9000    5.9100
    5.9200    5.9300    5.9400    5.9500    5.9600    5.9700    5.9800    5.9900
    6.0000    6.0100    6.0200    6.0300    6.0400    6.0500    6.0600    6.0700
    6.0800    6.0900    6.1000    6.1100    6.1200    6.1300    6.1400    6.1500
    6.1600    6.1700    6.1800    6.1900    6.2000    6.2100    6.2200    6.2300
    6.2400    6.2500    6.2600    6.2700    6.2800    6.2900    6.3000    6.3100
    6.3200    6.3300    6.3400    6.3500    6.3600    6.3700    6.3800    6.3900
    6.4000    6.4100    6.4200    6.4300    6.4400    6.4500    6.4600    6.4700
    6.4800    6.4900    6.5000    6.5100    6.5200    6.5300    6.5400    6.5500
    6.5600    6.5700    6.5800    6.5900    6.6000    6.6100    6.6200    6.6300
    6.6400    6.6500    6.6600    6.6700    6.6800    6.6900    6.7000    6.7100
    6.7200    6.7300    6.7400    6.7500    6.7600    6.7700    6.7800    6.7900
    6.8000    6.8100    6.8200    6.8300    6.8400    6.8500    6.8600    6.8700
    6.8800    6.8900    6.9000    6.9100    6.9200    6.9300    6.9400    6.9500
    6.9600    6.9700    6.9800    6.9900    7.0000    7.0100    7.0200    7.0300
    7.0400    7.0500    7.0600    7.0700    7.0800    7.0900    7.1000    7.1100
    7.1200    7.1300    7.1400    7.1500    7.1600    7.1700    7.1800    7.1900
    7.2000    7.2100    7.2200    7.2300    7.2400    7.2500    7.2600    7.2700
    7.2800    7.2900    7.3000    7.3100
   </PP_R>
   <PP_RAB type="real"  size=" 732" columns="8">
    0.0100    0.0100    0.0100    0.0100    0.0100    0.0100    0.0100    0.0100
    0.0100    0.0100    0.0100    0.0100    0.0100    0.0100    0.0100    0.0100
    0.0100    0.0100    0.0100    0.0100    0.0100    0.0100    0.0100    0.0100
    0.0100    0.0100    0.0100    0.0100    0.0100    0.0100    0.0100    0.0100
    0.0100    0.0100    0.0100    0.0100    0.0100    0.0100    0.0100    0.0100
    0.0100    0.0100    0.0100    0.0100    0.0100    0.0100    0.0100    0.0100
    0.0100    0.0100    0.0100    0.0100    0.0100    0.0100    0.0100    0.0100
    0.0100    0.0100    0.0100    0.0100    0.0100    0.0100    0.0100    0.0100
    0.0100    0.0100    0.0100    0.0100    0.0100    0.0100    0.0100    0.0100
    0.0100    0.0100    0.0100    0.0100    0.0100    0.0100    0.0100    0.0100
    0.0100    0.0100    0.0100    0.0100    0.0100    0.0100    0.0100    0.0100
    0.0100    0.0100    0.0100    0.0100    0.0100    0.0100    0.0100    0.0100
    0.0100    0.0100    0.0100    0.0100    0.0100    0.0100    0.0100    0.0100
    0.0100    0.0100    0.0100    0.0100    0.0100    0.0100    0.0100    0.0100
    0.0100    0.0100    0.0100    0.0100    0.0100    0.0100    0.0100    0.0100
    0.0100    0.0100    0.0100    0.0100    0.0100    0.0100    0.0100    0.0100
    0.0100    0.0100    0.0100    0.0100    0.0100    0.0100    0.0100    0.0100
    0.0100    0.0100    0.0100    0.0100    0.0100    0.0100    0.0100    0.0100
    0.0100    0.0100    0.0100    0.0100    0.0100    0.0100    0.0100    0.0100
    0.0100    0.0100    0.0100    0.0100    0.0100    0.0100    0.0100    0.0100
    0.0100    0.0100    0.0100    0.0100    0.0100    0.0100    0.0100    0.0100
    0.0100    0.0100    0.0100    0.0100    0.0100    0.0100    0.0100    0.0100
    0.0100    0.0100    0.0100    0.0100    0.0100    0.0100    0.0100    0.0100
    0.0100    0.0100    0.0100    0.0100    0.0100    0.0100    0.0100    0.0100
    0.0100    0.0100    0.0100    0.0100    0.0100    0.0100    0.0100    0.0100
    0.0100    0.0100    0.0100    0.0100    0.0100    0.0100    0.0100    0.0100
    0.0100    0.0100    0.0100    0.0100    0.0100    0.0100    0.0100    0.0100
    0.0100    0.0100    0.0100    0.0100    0.0100    0.0100    0.0100    0.0100
    0.0100    0.0100    0.0100    0.0100    0.0100    0.0100    0.0100    0.0100
    0.0100    0.0100    0.0100    0.0100    0.0100    0.0100    0.0100    0.0100
    0.0100    0.0100    0.0100    0.0100    0.0100    0.0100    0.0100    0.0100
    0.0100    0.0100    0.0100    0.0100    0.0100    0.0100    0.0100    0.0100
    0.0100    0.0100    0.0100    0.0100    0.0100    0.0100    0.0100    0.0100
    0.0100    0.0100    0.0100    0.0100    0.0100    0.0100    0.0100    0.0100
    0.0100    0.0100    0.0100    0.0100    0.0100    0.0100    0.0100    0.0100
    0.0100    0.0100    0.0100    0.0100    0.0100    0.0100    0.0100    0.0100
    0.0100    0.0100    0.0100    0.0100    0.0100    0.0100    0.0100    0.0100
    0.0100    0.0100    0.0100    0.0100    0.0100    0.0100    0.0100    0.0100
    0.0100    0.0100    0.0100    0.0100    0.0100    0.0100    0.0100    0.0100
    0.0100    0.0100    0.0100    0.0100    0.0100    0.0100    0.0100    0.0100
    0.0100    0.0100    0.0100    0.0100    0.0100    0.0100    0.0100    0.0100
    0.0100    0.0100    0.0100    0.0100    0.0100    0.0100    0.0100    0.0100
    0.0100    0.0100    0.0100    0.0100    0.0100    0.0100    0.0100    0.0100
    0.0100    0.0100    0.0100    0.0100    0.0100    0.0100    0.0100    0.0100
    0.0100    0.0100    0.0100    0.0100    0.0100    0.0100    0.0100    0.0100
    0.0100    0.0100    0.0100    0.0100    0.0100    0.0100    0.0100    0.0100
    0.0100    0.0100    0.0100    0.0100    0.0100    0.0100    0.0100    0.0100
    0.0100    0.0100    0.0100    0.0100    0.0100    0.0100    0.0100    0.0100
    0.0100    0.0100    0.0100    0.0100    0.0100    0.0100    0.0100    0.0100
    0.0100    0.0100    0.0100    0.0100    0.0100    0.0100    0.0100    0.0100
    0.0100    0.0100    0.0100    0.0100    0.0100    0.0100    0.0100    0.0100
    0.0100    0.0100    0.0100    0.0100    0.0100    0.0100    0.0100    0.0100
    0.0100    0.0100    0.0100    0.0100    0.0100    0.0100    0.0100    0.0100
    0.0100    0.0100    0.0100    0.0100    0.0100    0.0100    0.0100    0.0100
    0.0100    0.0100    0.0100    0.0100    0.0100    0.0100    0.0100    0.0100
    0.0100    0.0100    0.0100    0.0100    0.0100    0.0100    0.0100    0.0100
    0.0100    0.0100    0.0100    0.0100    0.0100    0.0100    0.0100    0.0100
    0.0100    0.0100    0.0100    0.0100    0.0100    0.0100    0.0100    0.0100
    0.0100    0.0100    0.0100    0.0100    0.0100    0.0100    0.0100    0.0100
    0.0100    0.0100    0.0100    0.0100    0.0100    0.0100    0.0100    0.0100
    0.0100    0.0100    0.0100    0.0100    0.0100    0.0100    0.0100    0.0100
    0.0100    0.0100    0.0100    0.0100    0.0100    0.0100    0.0100    0.0100
    0.0100    0.0100    0.0100    0.0100    0.0100    0.0100    0.0100    0.0100
    0.0100    0.0100    0.0100    0.0100    0.0100    0.0100    0.0100    0.0100
    0.0100    0.0100    0.0100    0.0100    0.0100    0.0100    0.0100    0.0100
    0.0100    0.0100    0.0100    0.0100    0.0100    0.0100    0.0100    0.0100
    0.0100    0.0100    0.0100    0.0100    0.0100    0.0100    0.0100    0.0100
    0.0100    0.0100    0.0100    0.0100    0.0100    0.0100    0.0100    0.0100
    0.0100    0.0100    0.0100    0.0100    0.0100    0.0100    0.0100    0.0100
    0.0100    0.0100    0.0100    0.0100    0.0100    0.0100    0.0100    0.0100
    0.0100    0.0100    0.0100    0.0100    0.0100    0.0100    0.0100    0.0100
    0.0100    0.0100    0.0100    0.0100    0.0100    0.0100    0.0100    0.0100
    0.0100    0.0100    0.0100    0.0100    0.0100    0.0100    0.0100    0.0100
    0.0100    0.0100    0.0100    0.0100    0.0100    0.0100    0.0100    0.0100
    0.0100    0.0100    0.0100    0.0100    0.0100    0.0100    0.0100    0.0100
    0.0100    0.0100    0.0100    0.0100    0.0100    0.0100    0.0100    0.0100
    0.0100    0.0100    0.0100    0.0100    0.0100    0.0100    0.0100    0.0100
    0.0100    0.0100    0.0100    0.0100    0.0100    0.0100    0.0100    0.0100
    0.0100    0.0100    0.0100    0.0100    0.0100    0.0100    0.0100    0.0100
    0.0100    0.0100    0.0100    0.0100    0.0100    0.0100    0.0100    0.0100
    0.0100    0.0100    0.0100    0.0100    0.0100    0.0100    0.0100    0.0100
    0.0100    0.0100    0.0100    0.0100    0.0100    0.0100    0.0100    0.0100
    0.0100    0.0100    0.0100    0.0100    0.0100    0.0100    0.0100    0.0100
    0.0100    0.0100    0.0100    0.0100    0.0100    0.0100    0.0100    0.0100
    0.0100    0.0100    0.0100    0.0100    0.0100    0.0100    0.0100    0.0100
    0.0100    0.0100    0.0100    0.0100    0.0100    0.0100    0.0100    0.0100
    0.0100    0.0100    0.0100    0.0100    0.0100    0.0100    0.0100    0.0100
    0.0100    0.0100    0.0100    0.0100    0.0100    0.0100    0.0100    0.0100
    0.0100    0.0100    0.0100    0.0100    0.0100    0.0100    0.0100    0.0100
    0.0100    0.0100    0.0100    0.0100    0.0100    0.0100    0.0100    0.0100
    0.0100    0.0100    0.0100    0.0100    0.0100    0.0100    0.0100    0.0100
    0.0100    0.0100    0.0100    0.0100
   </PP_RAB>
 </PP_MESH>
  <PP_LOCAL type="real"  size=" 732" columns="4">
   -8.7946119494E+00   -8.7936526693E+00   -8.7907757787E+00   -8.7859842686E+00
   -8.7792831044E+00   -8.7706792171E+00   -8.7601814887E+00   -8.7478007299E+00
   -8.7335496545E+00   -8.7174428484E+00   -8.6994967343E+00   -8.6797295332E+00
   -8.6581612210E+00   -8.6348134818E+00   -8.6097096583E+00   -8.5828746984E+00
   -8.5543350990E+00   -8.5241188480E+00   -8.4922553630E+00   -8.4587754287E+00
   -8.4237111321E+00   -8.3870957974E+00   -8.3489639182E+00   -8.3093510906E+00
   -8.2682939447E+00   -8.2258300766E+00   -8.1819979798E+00   -8.1368369781E+00
   -8.0903871580E+00   -8.0426893027E+00   -7.9937848268E+00   -7.9437157125E+00
   -7.8925244474E+00   -7.8402539636E+00   -7.7869475790E+00   -7.7326489401E+00
   -7.6774019672E+00   -7.6212508015E+00   -7.5642397542E+00   -7.5064132580E+00
   -7.4478158208E+00   -7.3884919812E+00   -7.3284862668E+00   -7.2678431537E+00
   -7.2066070289E+00   -7.1448221538E+00   -7.0825326303E+00   -7.0197823680E+00
   -6.9566150532E+00   -6.8930741194E+00   -6.8292027188E+00   -6.7650436956E+00
   -6.7006395592E+00   -6.6360324592E+00   -6.5712641605E+00   -6.5063760190E+00
   -6.4414089575E+00   -6.3764034420E+00   -6.3113994574E+00   -6.2464364840E+00
   -6.1815534723E+00   -6.1167888188E+00   -6.0521803397E+00   -5.9877652451E+00
   -5.9235801115E+00   -5.8596608539E+00   -5.7960426960E+00   -5.7327601404E+00
   -5.6698469363E+00   -5.6073360464E+00   -5.5452596129E+00   -5.4836489208E+00
   -5.4225343612E+00   -5.3619453915E+00   -5.3019129499E+00   -5.2423670446E+00
   -5.1834723423E+00   -5.1252074596E+00   -5.0676018009E+00   -5.0106784382E+00
   -4.9544590678E+00   -4.8989640776E+00   -4.8442124928E+00   -4.7902219202E+00
   -4.7370084912E+00   -4.6845868020E+00   -4.6329698536E+00   -4.5821689888E+00
   -4.5321938285E+00   -4.4830522058E+00   -4.4347500991E+00   -4.3872915627E+00
   -4.3406786569E+00   -4.2949113758E+00   -4.2499875740E+00   -4.2059028914E+00
   -4.1626506776E+00   -4.1202219132E+00   -4.0786051318E+00   -4.0377863388E+00
   -3.9977489318E+00   -3.9584736469E+00   -3.9199395998E+00   -3.8821263854E+00
   -3.8450144821E+00   -3.8085851978E+00   -3.7728206192E+00   -3.7377035619E+00
   -3.7032175242E+00   -3.6693466419E+00   -3.6360756460E+00   -3.6033898223E+00
   -3.5712749728E+00   -3.5397173794E+00   -3.5087037695E+00   -3.4782212837E+00
   -3.4482574453E+00   -3.4188001318E+00   -3.3898375485E+00   -3.3613582040E+00
   -3.3333508873E+00   -3.3058046476E+00   -3.2787087749E+00   -3.2520527836E+00
   -3.2258263966E+00   -3.2000195324E+00   -3.1746222977E+00   -3.1496250248E+00
   -3.1250183397E+00   -3.1007931588E+00   -3.0769406780E+00   -3.0534523620E+00
   -3.0303199343E+00   -3.0075353672E+00   -2.9850908727E+00   -2.9629788935E+00
   -2.9411920946E+00   -2.9197233552E+00   -2.8985657608E+00   -2.8777125960E+00
   -2.8571573372E+00   -2.8368936458E+00   -2.8169153620E+00   -2.7972164981E+00
   -2.7777912327E+00   -2.7586339052E+00   -2.7397390098E+00   -2.7211011908E+00
   -2.7027152370E+00   -2.6845760774E+00   -2.6666787758E+00   -2.6490185272E+00
   -2.6315906529E+00   -2.6143905963E+00   -2.5974139195E+00   -2.5806562989E+00
   -2.5641135218E+00   -2.5477814829E+00   -2.5316561808E+00   -2.5157337147E+00
   -2.5000102815E+00   -2.4844821723E+00   -2.4691457700E+00   -2.4539975463E+00
   -2.4390340588E+00   -2.4242519486E+00   -2.4096479378E+00   -2.3952188270E+00
   -2.3809614929E+00   -2.3668728861E+00   -2.3529500292E+00   -2.3391900141E+00
   -2.3255900006E+00   -2.3121472141E+00   -2.2988589437E+00   -2.2857225405E+00
   -2.2727354159E+00   -2.2598950397E+00   -2.2471989385E+00   -2.2346446944E+00
   -2.2222299430E+00   -2.2099523723E+00   -2.1978097210E+00   -2.1857997773E+00
   -2.1739203774E+00   -2.1621694045E+00   -2.1505447871E+00   -2.1390444981E+00
   -2.1276665534E+00   -2.1164090112E+00   -2.1052699702E+00   -2.0942475693E+00
   -2.0833399858E+00   -2.0725454351E+00   -2.0618621692E+00   -2.0512884759E+00
   -2.0408226782E+00   -2.0304631330E+00   -2.0202082303E+00   -2.0100563926E+00
   -2.0000060740E+00   -1.9900557591E+00   -1.9802039629E+00   -1.9704492292E+00
   -1.9607901308E+00   -1.9512252681E+00   -1.9417532686E+00   -1.9323727866E+00
   -1.9230825020E+00   -1.9138811202E+00   -1.9047673711E+00   -1.8957400088E+00
   -1.8867978106E+00   -1.8779395773E+00   -1.8691641316E+00   -1.8604703184E+00
   -1.8518570039E+00   -1.8433230752E+00   -1.8348674398E+00   -1.8264890252E+00
   -1.8181867784E+00   -1.8099596654E+00   -1.8018066709E+00   -1.7937267978E+00
   -1.7857190668E+00   -1.7777825159E+00   -1.7699162003E+00   -1.7621191917E+00
   -1.7543905783E+00   -1.7467294640E+00   -1.7391349683E+00   -1.7316062261E+00
   -1.7241423872E+00   -1.7167426158E+00   -1.7094060906E+00   -1.7021320042E+00
   -1.6949195628E+00   -1.6877679861E+00   -1.6806765069E+00   -1.6736443709E+00
   -1.6666708363E+00   -1.6597551735E+00   -1.6528966651E+00   -1.6460946057E+00
   -1.6393483009E+00   -1.6326570683E+00   -1.6260202361E+00   -1.6194371436E+00
   -1.6129071408E+00   -1.6064295879E+00   -1.6000038557E+00   -1.5936293247E+00
   -1.5873053853E+00   -1.5810314377E+00   -1.5748068915E+00   -1.5686311653E+00
   -1.5625036872E+00   -1.5564238939E+00   -1.5503912308E+00   -1.5444051522E+00
   -1.5384651205E+00   -1.5325706064E+00   -1.5267210887E+00   -1.5209160541E+00
   -1.5151549972E+00   -1.5094374201E+00   -1.5037628324E+00   -1.4981307510E+00
   -1.4925407003E+00   -1.4869922113E+00   -1.4814848224E+00   -1.4760180785E+00
   -1.4705915314E+00   -1.4652047392E+00   -1.4598572669E+00   -1.4545486853E+00
   -1.4492785717E+00   -1.4440465096E+00   -1.4388520884E+00   -1.4336949032E+00
   -1.4285745551E+00   -1.4234906508E+00   -1.4184428027E+00   -1.4134306285E+00
   -1.4084537514E+00   -1.4035117998E+00   -1.3986044073E+00   -1.3937312128E+00
   -1.3888918599E+00   -1.3840859975E+00   -1.3793132790E+00   -1.3745733627E+00
   -1.3698659116E+00   -1.3651905934E+00   -1.3605470802E+00   -1.3559350484E+00
   -1.3513541790E+00   -1.3468041573E+00   -1.3422846728E+00   -1.3377954189E+00
   -1.3333360934E+00   -1.3289063980E+00   -1.3245060384E+00   -1.3201347242E+00
   -1.3157921686E+00   -1.3114780888E+00   -1.3071922057E+00   -1.3029342436E+00
   -1.2987039307E+00   -1.2945009985E+00   -1.2903251820E+00   -1.2861762197E+00
   -1.2820538534E+00   -1.2779578280E+00   -1.2738878920E+00   -1.2698437969E+00
   -1.2658252974E+00   -1.2618321512E+00   -1.2578641192E+00   -1.2539209652E+00
   -1.2500024558E+00   -1.2461083609E+00   -1.2422384530E+00   -1.2383925073E+00
   -1.2345703021E+00   -1.2307716181E+00   -1.2269962390E+00   -1.2232439509E+00
   -1.2195145426E+00   -1.2158078056E+00   -1.2121235336E+00   -1.2084615231E+00
   -1.2048215729E+00   -1.2012034843E+00   -1.1976070609E+00   -1.1940321087E+00
   -1.1904784361E+00   -1.1869458534E+00   -1.1834341737E+00   -1.1799432118E+00
   -1.1764727850E+00   -1.1730227127E+00   -1.1695928162E+00   -1.1661829191E+00
   -1.1627928470E+00   -1.1594224276E+00   -1.1560714903E+00   -1.1527398668E+00
   -1.1494273906E+00   -1.1461338970E+00   -1.1428592234E+00   -1.1396032090E+00
   -1.1363656946E+00   -1.1331465231E+00   -1.1299455391E+00   -1.1267625887E+00
   -1.1235975201E+00   -1.1204501830E+00   -1.1173204288E+00   -1.1142081105E+00
   -1.1111130830E+00   -1.1080352024E+00   -1.1049743266E+00   -1.1019303152E+00
   -1.0989030292E+00   -1.0958923310E+00   -1.0928980847E+00   -1.0899201559E+00
   -1.0869584114E+00   -1.0840127198E+00   -1.0810829508E+00   -1.0781689758E+00
   -1.0752706673E+00   -1.0723878993E+00   -1.0695205472E+00   -1.0666684876E+00
   -1.0638315986E+00   -1.0610097594E+00   -1.0582028506E+00   -1.0554107540E+00
   -1.0526333526E+00   -1.0498705307E+00   -1.0471221739E+00   -1.0443881688E+00
   -1.0416684034E+00   -1.0389627666E+00   -1.0362711486E+00   -1.0335934408E+00
   -1.0309295357E+00   -1.0282793267E+00   -1.0256427085E+00   -1.0230195769E+00
   -1.0204098286E+00   -1.0178133615E+00   -1.0152300744E+00   -1.0126598672E+00
   -1.0101026409E+00   -1.0075582974E+00   -1.0050267395E+00   -1.0025078711E+00
   -1.0000015971E+00   -9.9750782314E-01   -9.9502645607E-01   -9.9255740347E-01
   -9.9010057391E-01   -9.8765587684E-01   -9.8522322263E-01   -9.8280252248E-01
   -9.8039368852E-01   -9.7799663370E-01   -9.7561127184E-01   -9.7323751758E-01
   -9.7087528640E-01   -9.6852449460E-01   -9.6618505928E-01   -9.6385689836E-01
   -9.6153993051E-01   -9.5923407523E-01   -9.5693925275E-01   -9.5465538408E-01
   -9.5238239098E-01   -9.5012019595E-01   -9.4786872222E-01   -9.4562789377E-01
   -9.4339763526E-01   -9.4117787209E-01   -9.3896853034E-01   -9.3676953680E-01
   -9.3458081894E-01   -9.3240230489E-01   -9.3023392347E-01   -9.2807560415E-01
   -9.2592727705E-01   -9.2378887294E-01   -9.2166032323E-01   -9.1954155996E-01
   -9.1743251579E-01   -9.1533312399E-01   -9.1324331847E-01   -9.1116303370E-01
   -9.0909220478E-01   -9.0703076737E-01   -9.0497865774E-01   -9.0293581271E-01
   -9.0090216969E-01   -8.9887766664E-01   -8.9686224209E-01   -8.9485583510E-01
   -8.9285838528E-01   -8.9086983280E-01   -8.8889011832E-01   -8.8691918308E-01
   -8.8495696879E-01   -8.8300341770E-01   -8.8105847256E-01   -8.7912207664E-01
   -8.7719417369E-01   -8.7527470795E-01   -8.7336362416E-01   -8.7146086754E-01
   -8.6956638378E-01   -8.6768011904E-01   -8.6580201995E-01   -8.6393203360E-01
   -8.6207010754E-01   -8.6021618977E-01   -8.5837022873E-01   -8.5653217331E-01
   -8.5470197283E-01   -8.5287957705E-01   -8.5106493615E-01   -8.4925800073E-01
   -8.4745872183E-01   -8.4566705087E-01   -8.4388293970E-01   -8.4210634059E-01
   -8.4033720619E-01   -8.3857548954E-01   -8.3682114410E-01   -8.3507412369E-01
   -8.3333438254E-01   -8.3160187524E-01   -8.2987655678E-01   -8.2815838249E-01
   -8.2644730811E-01   -8.2474328970E-01   -8.2304628372E-01   -8.2135624697E-01
   -8.1967313660E-01   -8.1799691012E-01   -8.1632752539E-01   -8.1466494060E-01
   -8.1300911429E-01   -8.1136000533E-01   -8.0971757293E-01   -8.0808177662E-01
   -8.0645257628E-01   -8.0482993207E-01   -8.0321380451E-01   -8.0160415443E-01
   -8.0000094294E-01   -7.9840413151E-01   -7.9681368188E-01   -7.9522955611E-01
   -7.9365171656E-01   -7.9208012588E-01   -7.9051474703E-01   -7.8895554325E-01
   -7.8740247807E-01   -7.8585551531E-01   -7.8431461908E-01   -7.8277975375E-01
   -7.8125088400E-01   -7.7972797476E-01   -7.7821099124E-01   -7.7669989893E-01
   -7.7519466357E-01   -7.7369525117E-01   -7.7220162801E-01   -7.7071376063E-01
   -7.6923161583E-01   -7.6775516064E-01   -7.6628436238E-01   -7.6481918859E-01
   -7.6335960707E-01   -7.6190558586E-01   -7.6045709326E-01   -7.5901409779E-01
   -7.5757656822E-01   -7.5614447354E-01   -7.5471778301E-01   -7.5329646607E-01
   -7.5188049244E-01   -7.5046983203E-01   -7.4906445501E-01   -7.4766433173E-01
   -7.4626943280E-01   -7.4487972903E-01   -7.4349519145E-01   -7.4211579131E-01
   -7.4074150006E-01   -7.3937228937E-01   -7.3800813113E-01   -7.3664899742E-01
   -7.3529486053E-01   -7.3394569295E-01   -7.3260146739E-01   -7.3126215673E-01
   -7.2992773407E-01   -7.2859817270E-01   -7.2727344611E-01   -7.2595352797E-01
   -7.2463839214E-01   -7.2332801269E-01   -7.2202236386E-01   -7.2072142007E-01
   -7.1942515594E-01   -7.1813354627E-01   -7.1684656603E-01   -7.1556419038E-01
   -7.1428639464E-01   -7.1301315433E-01   -7.1174444513E-01   -7.1048024290E-01
   -7.0922052365E-01   -7.0796526360E-01   -7.0671443910E-01   -7.0546802669E-01
   -7.0422600306E-01   -7.0298834507E-01   -7.0175502975E-01   -7.0052603427E-01
   -6.9930133599E-01   -6.9808091240E-01   -6.9686474117E-01   -6.9565280010E-01
   -6.9444506717E-01   -6.9324152049E-01   -6.9204213834E-01   -6.9084689914E-01
   -6.8965578146E-01   -6.8846876402E-01   -6.8728582568E-01   -6.8610694546E-01
   -6.8493210250E-01   -6.8376127610E-01   -6.8259444571E-01   -6.8143159090E-01
   -6.8027269137E-01   -6.7911772700E-01   -6.7796667777E-01   -6.7681952380E-01
   -6.7567624536E-01   -6.7453682284E-01   -6.7340123677E-01   -6.7226946779E-01
   -6.7114149671E-01   -6.7001730443E-01   -6.6889687199E-01   -6.6778018057E-01
   -6.6666721147E-01   -6.6555794609E-01   -6.6445236599E-01   -6.6335045282E-01
   -6.6225218838E-01   -6.6115755457E-01   -6.6006653342E-01   -6.5897910708E-01
   -6.5789525780E-01   -6.5681496797E-01   -6.5573822007E-01   -6.5466499673E-01
   -6.5359528066E-01   -6.5252905470E-01   -6.5146630179E-01   -6.5040700499E-01
   -6.4935114748E-01   -6.4829871252E-01   -6.4724968351E-01   -6.4620404394E-01
   -6.4516177741E-01   -6.4412286761E-01   -6.4308729837E-01   -6.4205505360E-01
   -6.4102611731E-01   -6.4000047362E-01   -6.3897810675E-01   -6.3795900103E-01
   -6.3694314088E-01   -6.3593051081E-01   -6.3492109544E-01   -6.3391487950E-01