<UPF version="2.0.1">
  <PP_INFO>

 This pseudopotential file has been produced using the code
 ONCVPSP  (Optimized Norm-Conservinng Vanderbilt PSeudopotential)
 scalar-relativistic version 4.0.1 06/04/2019 by D. R. Hamann
 The code is available through a link at URL www.mat-simresearch.com.
 Documentation with the package provides a full discription of the
 input data below.


 While it is not required under the terms of the GNU GPL, it is
 suggested that you cite D. R. Hamann, Phys. Rev. B 88, 085117 (2013)
 in any publication using these pseudopotentials.

    <PP_INPUTFILE>
# ATOM AND REFERENCE CONFIGURATION
# atsym  z   nc   nv     iexc    psfile
  Ne 10.00    1    2       3      upf
#
#   n    l    f        energy (Ha)
    1    0    2.00
    2    0    2.00
    2    1    6.00
#
# PSEUDOPOTENTIAL AND OPTIMIZATION
# lmax
    1
#
#   l,   rc,      ep,       ncon, nbas, qcut
    0   1.30000  -1.34000    4    7   8.00000
    1   1.70000  -0.49000    4    7   8.00000
#
# LOCAL POTENTIAL
# lloc, lpopt,  rc(5),   dvloc0
    4    5   1.30000      0.00000
#
# VANDERBILT-KLEINMAN-BYLANDER PROJECTORs
# l, nproj, debl
    0    2   1.50000
    1    2   1.50000
#
# MODEL CORE CHARGE
# icmod, fcfact, rcfact
    0   0.00000   0.00000
#
# LOG DERIVATIVE ANALYSIS
# epsh1, epsh2, depsh
  -12.00   12.00    0.02
#
# OUTPUT GRID
# rlmax, drl
    4.00    0.01
#
# TEST CONFIGURATIONS
# ncnf
    0
# nvcnf
#   n    l    f
    </PP_INPUTFILE>
  </PP_INFO>
  <!--                               -->
  <!-- END OF HUMAN READABLE SECTION -->
  <!--                               -->
    <PP_HEADER
       generated="Generated using ONCVPSP code by D. R. Hamann"
       author="anonymous"
       date="220414"
       comment=""
       element="Ne"
       pseudo_type="NC"
       relativistic="scalar"
       is_ultrasoft="F"
       is_paw="F"
       is_coulomb="F"
       has_so="F"
       has_wfc="F"
       has_gipaw="F"
       core_correction="F"
       functional="PZ"
       z_valence="    8.00"
       total_psenergy="  -6.65343207050E+01"
       rho_cutoff="   7.49000000000E+00"
       l_max="1"
       l_local="-1"
       mesh_size="   750"
       number_of_wfc="2"
       number_of_proj="4"/>
 <PP_MESH>
   <PP_R type="real"  size=" 750" columns="8">
    0.0000    0.0100    0.0200    0.0300    0.0400    0.0500    0.0600    0.0700
    0.0800    0.0900    0.1000    0.1100    0.1200    0.1300    0.1400    0.1500
    0.1600    0.1700    0.1800    0.1900    0.2000    0.2100    0.2200    0.2300
    0.2400    0.2500    0.2600    0.2700    0.2800    0.2900    0.3000    0.3100
    0.3200    0.3300    0.3400    0.3500    0.3600    0.3700    0.3800    0.3900
    0.4000    0.4100    0.4200    0.4300    0.4400    0.4500    0.4600    0.4700
    0.4800    0.4900    0.5000    0.5100    0.5200    0.5300    0.5400    0.5500
    0.5600    0.5700    0.5800    0.5900    0.6000    0.6100    0.6200    0.6300
    0.6400    0.6500    0.6600    0.6700    0.6800    0.6900    0.7000    0.7100
    0.7200    0.7300    0.7400    0.7500    0.7600    0.7700    0.7800    0.7900
    0.8000    0.8100    0.8200    0.8300    0.8400    0.8500    0.8600    0.8700
    0.8800    0.8900    0.9000    0.9100    0.9200    0.9300    0.9400    0.9500
    0.9600    0.9700    0.9800    0.9900    1.0000    1.0100    1.0200    1.0300
    1.0400    1.0500    1.0600    1.0700    1.0800    1.0900    1.1000    1.1100
    1.1200    1.1300    1.1400    1.1500    1.1600    1.1700    1.1800    1.1900
    1.2000    1.2100    1.2200    1.2300    1.2400    1.2500    1.2600    1.2700
    1.2800    1.2900    1.3000    1.3100    1.3200    1.3300    1.3400    1.3500
    1.3600    1.3700    1.3800    1.3900    1.4000    1.4100    1.4200    1.4300
    1.4400    1.4500    1.4600    1.4700    1.4800    1.4900    1.5000    1.5100
    1.5200    1.5300    1.5400    1.5500    1.5600    1.5700    1.5800    1.5900
    1.6000    1.6100    1.6200    1.6300    1.6400    1.6500    1.6600    1.6700
    1.6800    1.6900    1.7000    1.7100    1.7200    1.7300    1.7400    1.7500
    1.7600    1.7700    1.7800    1.7900    1.8000    1.8100    1.8200    1.8300
    1.8400    1.8500    1.8600    1.8700    1.8800    1.8900    1.9000    1.9100
    1.9200    1.9300    1.9400    1.9500    1.9600    1.9700    1.9800    1.9900
    2.0000    2.0100    2.0200    2.0300    2.0400    2.0500    2.0600    2.0700
    2.0800    2.0900    2.1000    2.1100    2.1200    2.1300    2.1400    2.1500
    2.1600    2.1700    2.1800    2.1900    2.2000    2.2100    2.2200    2.2300
    2.2400    2.2500    2.2600    2.2700    2.2800    2.2900    2.3000    2.3100
    2.3200    2.3300    2.3400    2.3500    2.3600    2.3700    2.3800    2.3900
    2.4000    2.4100    2.4200    2.4300    2.4400    2.4500    2.4600    2.4700
    2.4800    2.4900    2.5000    2.5100    2.5200    2.5300    2.5400    2.5500
    2.5600    2.5700    2.5800    2.5900    2.6000    2.6100    2.6200    2.6300
    2.6400    2.6500    2.6600    2.6700    2.6800    2.6900    2.7000    2.7100
    2.7200    2.7300    2.7400    2.7500    2.7600    2.7700    2.7800    2.7900
    2.8000    2.8100    2.8200    2.8300    2.8400    2.8500    2.8600    2.8700
    2.8800    2.8900    2.9000    2.9100    2.9200    2.9300    2.9400    2.9500
    2.9600    2.9700    2.9800    2.9900    3.0000    3.0100    3.0200    3.0300
    3.0400    3.0500    3.0600    3.0700    3.0800    3.0900    3.1000    3.1100
    3.1200    3.1300    3.1400    3.1500    3.1600    3.1700    3.1800    3.1900
    3.2000    3.2100    3.2200    3.2300    3.2400    3.2500    3.2600    3.2700
    3.2800    3.2900    3.3000    3.3100    3.3200    3.3300    3.3400    3.3500
    3.3600    3.3700    3.3800    3.3900    3.4000    3.4100    3.4200    3.4300
    3.4400    3.4500    3.4600    3.4700    3.4800    3.4900    3.5000    3.5100
    3.5200    3.5300    3.5400    3.5500    3.5600    3.5700    3.5800    3.5900
    3.6000    3.6100    3.6200    3.6300    3.6400    3.6500    3.6600    3.6700
    3.6800    3.6900    3.7000    3.7100    3.7200    3.7300    3.7400    3.7500
    3.7600    3.7700    3.7800    3.7900    3.8000    3.8100    3.8200    3.8300
    3.8400    3.8500    3.8600    3.8700    3.8800    3.8900    3.9000    3.9100
    3.9200    3.9300    3.9400    3.9500    3.9600    3.9700    3.9800    3.9900
    4.0000    4.0100    4.0200    4.0300    4.0400    4.0500    4.0600    4.0700
    4.0800    4.0900    4.1000    4.1100    4.1200    4.1300    4.1400    4.1500
    4.1600    4.1700    4.1800    4.1900    4.2000    4.2100    4.2200    4.2300
    4.2400    4.2500    4.2600    4.2700    4.2800    4.2900    4.3000    4.3100
    4.3200    4.3300    4.3400    4.3500    4.3600    4.3700    4.3800    4.3900
    4.4000    4.4100    4.4200    4.4300    4.4400    4.4500    4.4600    4.4700
    4.4800    4.4900    4.5000    4.5100    4.5200    4.5300    4.5400    4.5500
    4.5600    4.5700    4.5800    4.5900    4.6000    4.6100    4.6200    4.6300
    4.6400    4.6500    4.6600    4.6700    4.6800    4.6900    4.7000    4.7100
    4.7200    4.7300    4.7400    4.7500    4.7600    4.7700    4.7800    4.7900
    4.8000    4.8100    4.8200    4.8300    4.8400    4.8500    4.8600    4.8700
    4.8800    4.8900    4.9000    4.9100    4.9200    4.9300    4.9400    4.9500
    4.9600    4.9700    4.9800    4.9900    5.0000    5.0100    5.0200    5.0300
    5.0400    5.0500    5.0600    5.0700    5.0800    5.0900    5.1000    5.1100
    5.1200    5.1300    5.1400    5.1500    5.1600    5.1700    5.1800    5.1900
    5.2000    5.2100    5.2200    5.2300    5.2400    5.2500    5.2600    5.2700
    5.2800    5.2900    5.3000    5.3100    5.3200    5.3300    5.3400    5.3500
    5.3600    5.3700    5.3800    5.3900    5.4000    5.4100    5.4200    5.4300
    5.4400    5.4500    5.4600    5.4700    5.4800    5.4900    5.5000    5.5100
    5.5200    5.5300    5.5400    5.5500    5.5600    5.5700    5.5800    5.5900
    5.6000    5.6100    5.6200    5.6300    5.6400    5.6500    5.6600    5.6700
    5.6800    5.6900    5.7000    5.7100    5.7200    5.7300    5.7400    5.7500
    5.7600    5.7700    5.7800    5.7900    5.8000    5.8100    5.8200    5.8300
    5.8400    5.8500    5.8600    5.8700    5.8800    5.8900    5.9000    5.9100
    5.9200    5.9300    5.9400    5.9500    5.9600    5.9700    5.9800    5.9900
    6.0000    6.0100    6.0200    6.0300    6.0400    6.0500    6.0600    6.0700
    6.0800    6.0900    6.1000    6.1100    6.1200    6.1300    6.1400    6.1500
    6.1600    6.1700    6.1800    6.1900    6.2000    6.2100    6.2200    6.2300
    6.2400    6.2500    6.2600    6.2700    6.2800    6.2900    6.3000    6.3100
    6.3200    6.3300    6.3400    6.3500    6.3600    6.3700    6.3800    6.3900
    6.4000    6.4100    6.4200    6.4300    6.4400    6.4500    6.4600    6.4700
    6.4800    6.4900    6.5000    6.5100    6.5200    6.5300    6.5400    6.5500
    6.5600    6.5700    6.5800    6.5900    6.6000    6.6100    6.6200    6.6300
    6.6400    6.6500    6.6600    6.6700    6.6800    6.6900    6.7000    6.7100
    6.7200    6.7300    6.7400    6.7500    6.7600    6.7700    6.7800    6.7900
    6.8000    6.8100    6.8200    6.8300    6.8400    6.8500    6.8600    6.8700
    6.8800    6.8900    6.9000    6.9100    6.9200    6.9300    6.9400    6.9500
    6.9600    6.9700    6.9800    6.9900    7.0000    7.0100    7.0200    7.0300
    7.0400    7.0500    7.0600    7.0700    7.0800    7.0900    7.1000    7.1100
    7.1200    7.1300    7.1400    7.1500    7.1600    7.1700    7.1800    7.1900
    7.2000    7.2100    7.2200    7.2300    7.2400    7.2500    7.2600    7.2700
    7.2800    7.2900    7.3000    7.3100    7.3200    7.3300    7.3400    7.3500
    7.3600    7.3700    7.3800    7.3900    7.4000    7.4100    7.4200    7.4300
    7.4400    7.4500    7.4600    7.4700    7.4800    7.4900
   </PP_R>
   <PP_RAB type="real"  size=" 750" columns="8">
    0.0100    0.0100    0.0100    0.0100    0.0100    0.0100    0.0100    0.0100
    0.0100    0.0100    0.0100    0.0100    0.0100    0.0100    0.0100    0.0100
    0.0100    0.0100    0.0100    0.0100    0.0100    0.0100    0.0100    0.0100
    0.0100    0.0100    0.0100    0.0100    0.0100    0.0100    0.0100    0.0100
    0.0100    0.0100    0.0100    0.0100    0.0100    0.0100    0.0100    0.0100
    0.0100    0.0100    0.0100    0.0100    0.0100    0.0100    0.0100    0.0100
    0.0100    0.0100    0.0100    0.0100    0.0100    0.0100    0.0100    0.0100
    0.0100    0.0100    0.0100    0.0100    0.0100    0.0100    0.0100    0.0100
    0.0100    0.0100    0.0100    0.0100    0.0100    0.0100    0.0100    0.0100
    0.0100    0.0100    0.0100    0.0100    0.0100    0.0100    0.0100    0.0100
    0.0100    0.0100    0.0100    0.0100    0.0100    0.0100    0.0100    0.0100
    0.0100    0.0100    0.0100    0.0100    0.0100    0.0100    0.0100    0.0100
    0.0100    0.0100    0.0100    0.0100    0.0100    0.0100    0.0100    0.0100
    0.0100    0.0100    0.0100    0.0100    0.0100    0.0100    0.0100    0.0100
    0.0100    0.0100    0.0100    0.0100    0.0100    0.0100    0.0100    0.0100
    0.0100    0.0100    0.0100    0.0100    0.0100    0.0100    0.0100    0.0100
    0.0100    0.0100    0.0100    0.0100    0.0100    0.0100    0.0100    0.0100
    0.0100    0.0100    0.0100    0.0100    0.0100    0.0100    0.0100    0.0100
    0.0100    0.0100    0.0100    0.0100    0.0100    0.0100    0.0100    0.0100
    0.0100    0.0100    0.0100    0.0100    0.0100    0.0100    0.0100    0.0100
    0.0100    0.0100    0.0100    0.0100    0.0100    0.0100    0.0100    0.0100
    0.0100    0.0100    0.0100    0.0100    0.0100    0.0100    0.0100    0.0100
    0.0100    0.0100    0.0100    0.0100    0.0100    0.0100    0.0100    0.0100
    0.0100    0.0100    0.0100    0.0100    0.0100    0.0100    0.0100    0.0100
    0.0100    0.0100    0.0100    0.0100    0.0100    0.0100    0.0100    0.0100
    0.0100    0.0100    0.0100    0.0100    0.0100    0.0100    0.0100    0.0100
    0.0100    0.0100    0.0100    0.0100    0.0100    0.0100    0.0100    0.0100
    0.0100    0.0100    0.0100    0.0100    0.0100    0.0100    0.0100    0.0100
    0.0100    0.0100    0.0100    0.0100    0.0100    0.0100    0.0100    0.0100
    0.0100    0.0100    0.0100    0.0100    0.0100    0.0100    0.0100    0.0100
    0.0100    0.0100    0.0100    0.0100    0.0100    0.0100    0.0100    0.0100
    0.0100    0.0100    0.0100    0.0100    0.0100    0.0100    0.0100    0.0100
    0.0100    0.0100    0.0100    0.0100    0.0100    0.0100    0.0100    0.0100
    0.0100    0.0100    0.0100    0.0100    0.0100    0.0100    0.0100    0.0100
    0.0100    0.0100    0.0100    0.0100    0.0100    0.0100    0.0100    0.0100
    0.0100    0.0100    0.0100    0.0100    0.0100    0.0100    0.0100    0.0100
    0.0100    0.0100    0.0100    0.0100    0.0100    0.0100    0.0100    0.0100
    0.0100    0.0100    0.0100    0.0100    0.0100    0.0100    0.0100    0.0100
    0.0100    0.0100    0.0100    0.0100    0.0100    0.0100    0.0100    0.0100
    0.0100    0.0100    0.0100    0.0100    0.0100    0.0100    0.0100    0.0100
    0.0100    0.0100    0.0100    0.0100    0.0100    0.0100    0.0100    0.0100
    0.0100    0.0100    0.0100    0.0100    0.0100    0.0100    0.0100    0.0100
    0.0100    0.0100    0.0100    0.0100    0.0100    0.0100    0.0100    0.0100
    0.0100    0.0100    0.0100    0.0100    0.0100    0.0100    0.0100    0.0100
    0.0100    0.0100    0.0100    0.0100    0.0100    0.0100    0.0100    0.0100
    0.0100    0.0100    0.0100    0.0100    0.0100    0.0100    0.0100    0.0100
    0.0100    0.0100    0.0100    0.0100    0.0100    0.0100    0.0100    0.0100
    0.0100    0.0100    0.0100    0.0100    0.0100    0.0100    0.0100    0.0100
    0.0100    0.0100    0.0100    0.0100    0.0100    0.0100    0.0100    0.0100
    0.0100    0.0100    0.0100    0.0100    0.0100    0.0100    0.0100    0.0100
    0.0100    0.0100    0.0100    0.0100    0.0100    0.0100    0.0100    0.0100
    0.0100    0.0100    0.0100    0.0100    0.0100    0.0100    0.0100    0.0100
    0.0100    0.0100    0.0100    0.0100    0.0100    0.0100    0.0100    0.0100
    0.0100    0.0100    0.0100    0.0100    0.0100    0.0100    0.0100    0.0100
    0.0100    0.0100    0.0100    0.0100    0.0100    0.0100    0.0100    0.0100
    0.0100    0.0100    0.0100    0.0100    0.0100    0.0100    0.0100    0.0100
    0.0100    0.0100    0.0100    0.0100    0.0100    0.0100    0.0100    0.0100
    0.0100    0.0100    0.0100    0.0100    0.0100    0.0100    0.0100    0.0100
    0.0100    0.0100    0.0100    0.0100    0.0100    0.0100    0.0100    0.0100
    0.0100    0.0100    0.0100    0.0100    0.0100    0.0100    0.0100    0.0100
    0.0100    0.0100    0.0100    0.0100    0.0100    0.0100    0.0100    0.0100
    0.0100    0.0100    0.0100    0.0100    0.0100    0.0100    0.0100    0.0100
    0.0100    0.0100    0.0100    0.0100    0.0100    0.0100    0.0100    0.0100
    0.0100    0.0100    0.0100    0.0100    0.0100    0.0100    0.0100    0.0100
    0.0100    0.0100    0.0100    0.0100    0.0100    0.0100    0.0100    0.0100
    0.0100    0.0100    0.0100    0.0100    0.0100    0.0100    0.0100    0.0100
    0.0100    0.0100    0.0100    0.0100    0.0100    0.0100    0.0100    0.0100
    0.0100    0.0100    0.0100    0.0100    0.0100    0.0100    0.0100    0.0100
    0.0100    0.0100    0.0100    0.0100    0.0100    0.0100    0.0100    0.0100
    0.0100    0.0100    0.0100    0.0100    0.0100    0.0100    0.0100    0.0100
    0.0100    0.0100    0.0100    0.0100    0.0100    0.0100    0.0100    0.0100
    0.0100    0.0100    0.0100    0.0100    0.0100    0.0100    0.0100    0.0100
    0.0100    0.0100    0.0100    0.0100    0.0100    0.0100    0.0100    0.0100
    0.0100    0.0100    0.0100    0.0100    0.0100    0.0100    0.0100    0.0100
    0.0100    0.0100    0.0100    0.0100    0.0100    0.0100    0.0100    0.0100
    0.0100    0.0100    0.0100    0.0100    0.0100    0.0100    0.0100    0.0100
    0.0100    0.0100    0.0100    0.0100    0.0100    0.0100    0.0100    0.0100
    0.0100    0.0100    0.0100    0.0100    0.0100    0.0100    0.0100    0.0100
    0.0100    0.0100    0.0100    0.0100    0.0100    0.0100    0.0100    0.0100
    0.0100    0.0100    0.0100    0.0100    0.0100    0.0100    0.0100    0.0100
    0.0100    0.0100    0.0100    0.0100    0.0100    0.0100    0.0100    0.0100
    0.0100    0.0100    0.0100    0.0100    0.0100    0.0100    0.0100    0.0100
    0.0100    0.0100    0.0100    0.0100    0.0100    0.0100    0.0100    0.0100
    0.0100    0.0100    0.0100    0.0100    0.0100    0.0100    0.0100    0.0100
    0.0100    0.0100    0.0100    0.0100    0.0100    0.0100    0.0100    0.0100
    0.0100    0.0100    0.0100    0.0100    0.0100    0.0100    0.0100    0.0100
    0.0100    0.0100    0.0100    0.0100    0.0100    0.0100    0.0100    0.0100
    0.0100    0.0100    0.0100    0.0100    0.0100    0.0100    0.0100    0.0100
    0.0100    0.0100    0.0100    0.0100    0.0100    0.0100    0.0100    0.0100
    0.0100    0.0100    0.0100    0.0100    0.0100    0.0100    0.0100    0.0100
    0.0100    0.0100    0.0100    0.0100    0.0100    0.0100    0.0100    0.0100
    0.0100    0.0100    0.0100    0.0100    0.0100    0.0100    0.0100    0.0100
    0.0100    0.0100    0.0100    0.0100    0.0100    0.0100    0.0100    0.0100
    0.0100    0.0100    0.0100    0.0100    0.0100    0.0100
   </PP_RAB>
 </PP_MESH>
  <PP_LOCAL type="real"  size=" 750" columns="4">
   -2.6953995074E+01   -2.6952038742E+01   -2.6946174808E+01   -2.6936421411E+01
   -2.6922807729E+01   -2.6905373518E+01   -2.6884168097E+01   -2.6859249133E+01
   -2.6830681291E+01   -2.6798534809E+01   -2.6762884068E+01   -2.6723806188E+01
   -2.6681379716E+01   -2.6635683428E+01   -2.6586795281E+01   -2.6534791510E+01
   -2.6479745899E+01   -2.6421729208E+01   -2.6360808749E+01   -2.6297048115E+01
   -2.6230507023E+01   -2.6161241280E+01   -2.6089302836E+01   -2.6014739921E+01
   -2.5937597248E+01   -2.5857916261E+01   -2.5775735426E+01   -2.5691090546E+01
   -2.5604015101E+01   -2.5514540588E+01   -2.5422696873E+01   -2.5328512531E+01
   -2.5232015191E+01   -2.5133231859E+01   -2.5032189229E+01   -2.4928913988E+01
   -2.4823433085E+01   -2.4715773998E+01   -2.4605964967E+01   -2.4494035216E+01
   -2.4380015147E+01   -2.4263936517E+01   -2.4145832589E+01   -2.4025738266E+01
   -2.3903690204E+01   -2.3779726900E+01   -2.3653888766E+01   -2.3526218182E+01
   -2.3396759530E+01   -2.3265559211E+01   -2.3132665645E+01   -2.2998129255E+01
   -2.2862002442E+01   -2.2724339532E+01   -2.2585196730E+01   -2.2444632043E+01
   -2.2302705205E+01   -2.2159477586E+01   -2.2015012097E+01   -2.1869373079E+01
   -2.1722626196E+01   -2.1574838312E+01   -2.1426077371E+01   -2.1276412267E+01
   -2.1125912713E+01   -2.0974649113E+01   -2.0822692422E+01   -2.0670114014E+01
   -2.0516985548E+01   -2.0363378831E+01   -2.0209365689E+01   -2.0055017836E+01
   -1.9900406745E+01   -1.9745603526E+01   -1.9590678802E+01   -1.9435702597E+01
   -1.9280744217E+01   -1.9125872152E+01   -1.8971153964E+01   -1.8816656196E+01
   -1.8662444278E+01   -1.8508582444E+01   -1.8355133643E+01   -1.8202159476E+01
   -1.8049720116E+01   -1.7897874251E+01   -1.7746679022E+01   -1.7596189975E+01
   -1.7446461006E+01   -1.7297544328E+01   -1.7149490425E+01   -1.7002348025E+01
   -1.6856164069E+01   -1.6710983690E+01   -1.6566850188E+01   -1.6423805020E+01
   -1.6281887781E+01   -1.6141136199E+01   -1.6001586124E+01   -1.5863271527E+01
   -1.5726224495E+01   -1.5590475234E+01   -1.5456052065E+01   -1.5322981430E+01
   -1.5191287897E+01   -1.5060994160E+01   -1.4932121045E+01   -1.4804687518E+01
   -1.4678710686E+01   -1.4554205803E+01   -1.4431186273E+01   -1.4309663656E+01
   -1.4189647666E+01   -1.4071146177E+01   -1.3954165218E+01   -1.3838708975E+01
   -1.3724779785E+01   -1.3612378134E+01   -1.3501502647E+01   -1.3392150274E+01
   -1.3284315422E+01   -1.3177961581E+01   -1.3073045689E+01   -1.2969658967E+01
   -1.2867750041E+01   -1.2767306940E+01   -1.2668312948E+01   -1.2570749277E+01
   -1.2474595084E+01   -1.2379827440E+01   -1.2286421302E+01   -1.2194349465E+01
   -1.2103583254E+01   -1.2014094390E+01   -1.1925855611E+01   -1.1838840625E+01
   -1.1753024072E+01   -1.1668381488E+01   -1.1584889269E+01   -1.1502524633E+01
   -1.1421265586E+01   -1.1341090882E+01   -1.1261979998E+01   -1.1183913090E+01
   -1.1106870965E+01   -1.1030835048E+01   -1.0955787348E+01   -1.0881710430E+01
   -1.0808587380E+01   -1.0736401778E+01   -1.0665137669E+01   -1.0594779533E+01
   -1.0525312260E+01   -1.0456721118E+01   -1.0388991734E+01   -1.0322110064E+01
   -1.0256062370E+01   -1.0190835200E+01   -1.0126415361E+01   -1.0062789898E+01
   -9.9999460802E+00   -9.9378713730E+00   -9.8765534256E+00   -9.8159800517E+00
   -9.7561392134E+00   -9.6970190066E+00   -9.6386076465E+00   -9.5808934549E+00
   -9.5238648482E+00   -9.4675103267E+00   -9.4118184649E+00   -9.3567779035E+00
   -9.3023773665E+00   -9.2486057488E+00   -9.1954522093E+00   -9.1429061519E+00
   -9.0909572213E+00   -9.0395952966E+00   -8.9888104839E+00   -8.9385931108E+00
   -8.8889337197E+00   -8.8398230619E+00   -8.7912520922E+00   -8.7432119628E+00
   -8.6956940187E+00   -8.6486897916E+00   -8.6021909955E+00   -8.5561895218E+00
   -8.5106774342E+00   -8.4656469645E+00   -8.4210905079E+00   -8.3770006191E+00
   -8.3333700077E+00   -8.2901915344E+00   -8.2474582074E+00   -8.2051631780E+00
   -8.1632997375E+00   -8.1218613131E+00   -8.0808414652E+00   -8.0402338834E+00
   -8.0000323835E+00   -7.9602309045E+00   -7.9208235053E+00   -7.8818043620E+00
   -7.8431677648E+00   -7.8049081152E+00   -7.7670199238E+00   -7.7294978068E+00
   -7.6923364843E+00   -7.6555307773E+00   -7.6190756054E+00   -7.5829659847E+00
   -7.5471970251E+00   -7.5117639285E+00   -7.4766619865E+00   -7.4418865782E+00
   -7.4074331683E+00   -7.3732973052E+00   -7.3394746188E+00   -7.3059608189E+00
   -7.2727516935E+00   -7.2398431066E+00   -7.2072309967E+00   -7.1749113753E+00
   -7.1428803252E+00   -7.1111339985E+00   -7.0796686157E+00   -7.0484804639E+00
   -7.0175658952E+00   -6.9869213255E+00   -6.9565432329E+00   -6.9264281568E+00
   -6.8965726959E+00   -6.8669735076E+00   -6.8376273062E+00   -6.8085308620E+00
   -6.7796810002E+00   -6.7510745994E+00   -6.7227085906E+00   -6.6945799565E+00
   -6.6666857297E+00   -6.6390229922E+00   -6.6115888744E+00   -6.5843805538E+00
   -6.5573952540E+00   -6.5306302442E+00   -6.5040828379E+00   -6.4777503921E+00
   -6.4516303064E+00   -6.4257200223E+00   -6.4000170221E+00   -6.3745188282E+00
   -6.3492230025E+00   -6.3241271452E+00   -6.2992288947E+00   -6.2745259259E+00
   -6.2500159505E+00   -6.2256967156E+00   -6.2015660032E+00   -6.1776216296E+00
   -6.1538614448E+00   -6.1302833316E+00   -6.1068852053E+00   -6.0836650126E+00
   -6.0606207317E+00   -6.0377503710E+00   -6.0150519690E+00   -5.9925235935E+00
   -5.9701633414E+00   -5.9479693374E+00   -5.9259397346E+00   -5.9040727128E+00
   -5.8823664789E+00   -5.8608192660E+00   -5.8394293329E+00   -5.8181949639E+00
   -5.7971144680E+00   -5.7761861787E+00   -5.7554084535E+00   -5.7347796734E+00
   -5.7142982425E+00   -5.6939625877E+00   -5.6737711583E+00   -5.6537224251E+00
   -5.6338148810E+00   -5.6140470397E+00   -5.5944174358E+00   -5.5749246242E+00
   -5.5555671800E+00   -5.5363436981E+00   -5.5172527926E+00   -5.4982930967E+00
   -5.4794632623E+00   -5.4607619598E+00   -5.4421878777E+00   -5.4237397222E+00
   -5.4054162170E+00   -5.3872161029E+00   -5.3691381378E+00   -5.3511810961E+00
   -5.3333437685E+00   -5.3156249619E+00   -5.2980234990E+00   -5.2805382178E+00
   -5.2631679718E+00   -5.2459116296E+00   -5.2287680744E+00   -5.2117362041E+00
   -5.1948149308E+00   -5.1780031807E+00   -5.1612998940E+00   -5.1447040244E+00
   -5.1282145389E+00   -5.1118304180E+00   -5.0955506550E+00   -5.0793742560E+00
   -5.0633002396E+00   -5.0473276370E+00   -5.0314554913E+00   -5.0156828579E+00
   -5.0000088039E+00   -4.9844324079E+00   -4.9689527600E+00   -4.9535689617E+00
   -4.9382801254E+00   -4.9230853746E+00   -4.9079838435E+00   -4.8929746768E+00
   -4.8780570298E+00   -4.8632300678E+00   -4.8484929666E+00   -4.8338449115E+00
   -4.8192850981E+00   -4.8048127312E+00   -4.7904270256E+00   -4.7761272050E+00
   -4.7619125027E+00   -4.7477821609E+00   -4.7337354309E+00   -4.7197715727E+00
   -4.7058898551E+00   -4.6920895555E+00   -4.6783699596E+00   -4.6647303616E+00
   -4.6511700638E+00   -4.6376883768E+00   -4.6242846187E+00   -4.6109581160E+00
   -4.5977082026E+00   -4.5845342202E+00   -4.5714355179E+00   -4.5584114523E+00
   -4.5454613873E+00   -4.5325846940E+00   -4.5197807506E+00   -4.5070489422E+00
   -4.4943886611E+00   -4.4817993061E+00   -4.4692802829E+00   -4.4568310038E+00
   -4.4444508875E+00   -4.4321393594E+00   -4.4198958508E+00   -4.4077197999E+00
   -4.3956106504E+00   -4.3835678527E+00   -4.3715908628E+00   -4.3596791427E+00
   -4.3478321605E+00   -4.3360493896E+00   -4.3243303096E+00   -4.3126744054E+00
   -4.3010811676E+00   -4.2895500920E+00   -4.2780806800E+00   -4.2666724384E+00
   -4.2553248791E+00   -4.2440375193E+00   -4.2328098810E+00   -4.2216414916E+00
   -4.2105318834E+00   -4.1994805935E+00   -4.1884871639E+00   -4.1775511413E+00
   -4.1666720774E+00   -4.1558495282E+00   -4.1450830545E+00   -4.1343722216E+00
   -4.1237165994E+00   -4.1131157619E+00   -4.1025692879E+00   -4.0920767601E+00
   -4.0816377658E+00   -4.0712518963E+00   -4.0609187470E+00   -4.0506379176E+00
   -4.0404090116E+00   -4.0302316369E+00   -4.0201054048E+00   -4.0100299309E+00
   -4.0000048344E+00   -3.9900297386E+00   -3.9801042702E+00   -3.9702280598E+00
   -3.9604007417E+00   -3.9506219536E+00   -3.9408913370E+00   -3.9312085369E+00
   -3.9215732015E+00   -3.9119849828E+00   -3.9024435359E+00   -3.8929485196E+00
   -3.8834995957E+00   -3.8740964294E+00   -3.8647386891E+00   -3.8554260464E+00
   -3.8461581762E+00   -3.8369347563E+00   -3.8277554676E+00   -3.8186199943E+00
   -3.8095280233E+00   -3.8004792447E+00   -3.7914733513E+00   -3.7825100391E+00
   -3.7735890068E+00   -3.7647099559E+00   -3.7558725907E+00   -3.7470766184E+00
   -3.7383217489E+00   -3.7296076948E+00   -3.7209341712E+00   -3.7123008960E+00
   -3.7037075898E+00   -3.6951539756E+00   -3.6866397790E+00   -3.6781647283E+00
   -3.6697285540E+00   -3.6613309893E+00   -3.6529717698E+00   -3.6446506333E+00
   -3.6363673202E+00   -3.6281215732E+00   -3.6199131374E+00   -3.6117417600E+00
   -3.6036071908E+00   -3.5955091814E+00   -3.5874474861E+00   -3.5794218611E+00
   -3.5714320648E+00   -3.5634778579E+00   -3.5555590031E+00   -3.5476752652E+00
   -3.5398264112E+00   -3.5320122100E+00   -3.5242324327E+00   -3.5164868523E+00
   -3.5087752437E+00   -3.5010973841E+00   -3.4934530523E+00   -3.4858420292E+00
   -3.4782640976E+00   -3.4707190421E+00   -3.4632066492E+00   -3.4557267074E+00
   -3.4482790067E+00   -3.4408633392E+00   -3.4334794986E+00   -3.4261272806E+00
   -3.4188064824E+00   -3.4115169029E+00   -3.4042583430E+00   -3.3970306051E+00
   -3.3898334933E+00   -3.3826668132E+00   -3.3755303724E+00   -3.3684239798E+00
   -3.3613474460E+00   -3.3543005833E+00   -3.3472832055E+00   -3.3402951278E+00
   -3.3333361671E+00   -3.3264061419E+00   -3.3195048720E+00   -3.3126321789E+00
   -3.3057878854E+00   -3.2989718158E+00   -3.2921837959E+00   -3.2854236530E+00
   -3.2786912156E+00   -3.2719863138E+00   -3.2653087790E+00   -3.2586584440E+00
   -3.2520351429E+00   -3.2454387112E+00   -3.2388689858E+00   -3.2323258047E+00
   -3.2258090075E+00   -3.2193184349E+00   -3.2128539289E+00   -3.2064153328E+00
   -3.2000024911E+00   -3.1936152496E+00   -3.1872534554E+00   -3.1809169566E+00
   -3.1746056027E+00   -3.1683192442E+00   -3.1620577331E+00   -3.1558209223E+00
   -3.1496086659E+00   -3.1434208192E+00   -3.1372572386E+00   -3.1311177816E+00
   -3.1250023070E+00   -3.1189106743E+00   -3.1128427446E+00   -3.1067983797E+00
   -3.1007774426E+00   -3.0947797974E+00   -3.0888053091E+00   -3.0828538440E+00
   -3.0769252691E+00   -3.0710194527E+00   -3.0651362641E+00   -3.0592755733E+00
   -3.0534372516E+00   -3.0476211711E+00   -3.0418272051E+00   -3.0360552276E+00
   -3.0303051137E+00   -3.0245767394E+00   -3.0188699816E+00   -3.0131847183E+00
   -3.0075208281E+00   -3.0018781909E+00   -2.9962566871E+00   -2.9906561984E+00
   -2.9850766071E+00   -2.9795177964E+00   -2.9739796504E+00   -2.9684620542E+00
   -2.9629648936E+00   -2.9574880552E+00   -2.9520314266E+00   -2.9465948961E+00
   -2.9411783529E+00   -2.9357816869E+00   -2.9304047890E+00   -2.9250475507E+00
   -2.9197098644E+00   -2.9143916233E+00   -2.9090927212E+00   -2.9038130530E+00
   -2.8985525140E+00   -2.8933110005E+00   -2.8880884095E+00   -2.8828846386E+00
   -2.8776995864E+00   -2.8725331520E+00   -2.8673852353E+00   -2.8622557370E+00
   -2.8571445583E+00   -2.8520516013E+00   -2.8469767688E+00   -2.8419199641E+00
   -2.8368810913E+00   -2.8318600554E+00   -2.8268567616E+00   -2.8218711161E+00
   -2.8169030258E+00   -2.8119523981E+00   -2.8070191409E+00   -2.8021031632E+00
   -2.7972043743E+00   -2.7923226841E+00   -2.7874580033E+00   -2.7826102432E+00
   -2.7777793156E+00   -2.7729651330E+00   -2.7681676085E+00   -2.7633866558E+00
   -2.7586221891E+00   -2.7538741235E+00   -2.7491423742E+00   -2.7444268573E+00
   -2.7397274896E+00   -2.7350441880E+00   -2.7303768705E+00   -2.7257254552E+00
   -2.7210898612E+00   -2.7164700077E+00   -2.7118658147E+00   -2.7072772028E+00
   -2.7027040930E+00   -2.6981464069E+00   -2.6936040665E+00   -2.6890769945E+00
   -2.6845651141E+00   -2.6800683489E+00   -2.6755866230E+00   -2.6711198612E+00
   -2.6666679887E+00   -2.6622309310E+00   -2.6578086144E+00   -2.6534009656E+00
   -2.6490079117E+00   -2.6446293802E+00   -2.6402652994E+00   -2.6359155978E+00
   -2.6315802045E+00   -2.6272590489E+00   -2.6229520610E+00   -2.6186591714E+00