<UPF version="2.0.1">
  <PP_INFO>

 This pseudopotential file has been produced using the code
 ONCVPSP  (Optimized Norm-Conservinng Vanderbilt PSeudopotential)
 fully-relativistic version 4.0.1 06/04/2019 by D. R. Hamann
 The code is available through a link at URL www.mat-simresearch.com.
 Documentation with the package provides a full discription of the
 input data below.


 While it is not required under the terms of the GNU GPL, it is
 suggested that you cite D. R. Hamann, Phys. Rev. B 88, 085117 (2013)
 in any publication using these pseudopotentials.

    <PP_INPUTFILE>
# ATOM AND REFERENCE CONFIGURATION
# atsym  z   nc   nv     iexc    psfile
  Ne 10.00    1    2       3      upf
#
#   n    l    f        energy (Ha)
    1    0    2.00
    2    0    2.00
    2    1    6.00
#
# PSEUDOPOTENTIAL AND OPTIMIZATION
# lmax
    1
#
#   l,   rc,     ep,   ncon, nbas, qcut
    0   1.30000  -1.34000    4    7   8.00000
    1   1.70000  -0.49000    4    7   8.00000
#
# LOCAL POTENTIAL
# lloc, lpopt,  rc(5),   dvloc0
    4    5   1.30000      0.00000
#
# VANDERBILT-KLEINMAN-BYLANDER PROJECTORs
# l, nproj, debl
    0    2   1.50000
    1    2   1.50000
#
# MODEL CORE CHARGE
# icmod, fcfact, rcfact
    0   0.00000   0.00000
#
# LOG DERIVATIVE ANALYSIS
# epsh1, epsh2, depsh
  -12.00   12.00    0.02
#
# OUTPUT GRID
# rlmax, drl
    4.00    0.01
#
# TEST CONFIGURATIONS
# ncnf
    0
# nvcnf
#   n    l    f
    </PP_INPUTFILE>
  </PP_INFO>
  <!--                               -->
  <!-- END OF HUMAN READABLE SECTION -->
  <!--                               -->
    <PP_HEADER
       generated="Generated using ONCVPSP code by D. R. Hamann"
       author="anonymous"
       date="220414"
       comment=""
       element="Ne"
       pseudo_type="NC"
       relativistic="full"
       is_ultrasoft="F"
       is_paw="F"
       is_coulomb="F"
       has_so="T"
       has_wfc="F"
       has_gipaw="F"
       core_correction="F"
       functional="PZ"
       z_valence="    8.00"
       total_psenergy="  -6.65313691011E+01"
       rho_cutoff="   7.49000000000E+00"
       l_max="1"
       l_local="-1"
       mesh_size="   750"
       number_of_wfc="3"
       number_of_proj="6"/>
 <PP_MESH>
   <PP_R type="real"  size=" 750" columns="8">
    0.0000    0.0100    0.0200    0.0300    0.0400    0.0500    0.0600    0.0700
    0.0800    0.0900    0.1000    0.1100    0.1200    0.1300    0.1400    0.1500
    0.1600    0.1700    0.1800    0.1900    0.2000    0.2100    0.2200    0.2300
    0.2400    0.2500    0.2600    0.2700    0.2800    0.2900    0.3000    0.3100
    0.3200    0.3300    0.3400    0.3500    0.3600    0.3700    0.3800    0.3900
    0.4000    0.4100    0.4200    0.4300    0.4400    0.4500    0.4600    0.4700
    0.4800    0.4900    0.5000    0.5100    0.5200    0.5300    0.5400    0.5500
    0.5600    0.5700    0.5800    0.5900    0.6000    0.6100    0.6200    0.6300
    0.6400    0.6500    0.6600    0.6700    0.6800    0.6900    0.7000    0.7100
    0.7200    0.7300    0.7400    0.7500    0.7600    0.7700    0.7800    0.7900
    0.8000    0.8100    0.8200    0.8300    0.8400    0.8500    0.8600    0.8700
    0.8800    0.8900    0.9000    0.9100    0.9200    0.9300    0.9400    0.9500
    0.9600    0.9700    0.9800    0.9900    1.0000    1.0100    1.0200    1.0300
    1.0400    1.0500    1.0600    1.0700    1.0800    1.0900    1.1000    1.1100
    1.1200    1.1300    1.1400    1.1500    1.1600    1.1700    1.1800    1.1900
    1.2000    1.2100    1.2200    1.2300    1.2400    1.2500    1.2600    1.2700
    1.2800    1.2900    1.3000    1.3100    1.3200    1.3300    1.3400    1.3500
    1.3600    1.3700    1.3800    1.3900    1.4000    1.4100    1.4200    1.4300
    1.4400    1.4500    1.4600    1.4700    1.4800    1.4900    1.5000    1.5100
    1.5200    1.5300    1.5400    1.5500    1.5600    1.5700    1.5800    1.5900
    1.6000    1.6100    1.6200    1.6300    1.6400    1.6500    1.6600    1.6700
    1.6800    1.6900    1.7000    1.7100    1.7200    1.7300    1.7400    1.7500
    1.7600    1.7700    1.7800    1.7900    1.8000    1.8100    1.8200    1.8300
    1.8400    1.8500    1.8600    1.8700    1.8800    1.8900    1.9000    1.9100
    1.9200    1.9300    1.9400    1.9500    1.9600    1.9700    1.9800    1.9900
    2.0000    2.0100    2.0200    2.0300    2.0400    2.0500    2.0600    2.0700
    2.0800    2.0900    2.1000    2.1100    2.1200    2.1300    2.1400    2.1500
    2.1600    2.1700    2.1800    2.1900    2.2000    2.2100    2.2200    2.2300
    2.2400    2.2500    2.2600    2.2700    2.2800    2.2900    2.3000    2.3100
    2.3200    2.3300    2.3400    2.3500    2.3600    2.3700    2.3800    2.3900
    2.4000    2.4100    2.4200    2.4300    2.4400    2.4500    2.4600    2.4700
    2.4800    2.4900    2.5000    2.5100    2.5200    2.5300    2.5400    2.5500
    2.5600    2.5700    2.5800    2.5900    2.6000    2.6100    2.6200    2.6300
    2.6400    2.6500    2.6600    2.6700    2.6800    2.6900    2.7000    2.7100
    2.7200    2.7300    2.7400    2.7500    2.7600    2.7700    2.7800    2.7900
    2.8000    2.8100    2.8200    2.8300    2.8400    2.8500    2.8600    2.8700
    2.8800    2.8900    2.9000    2.9100    2.9200    2.9300    2.9400    2.9500
    2.9600    2.9700    2.9800    2.9900    3.0000    3.0100    3.0200    3.0300
    3.0400    3.0500    3.0600    3.0700    3.0800    3.0900    3.1000    3.1100
    3.1200    3.1300    3.1400    3.1500    3.1600    3.1700    3.1800    3.1900
    3.2000    3.2100    3.2200    3.2300    3.2400    3.2500    3.2600    3.2700
    3.2800    3.2900    3.3000    3.3100    3.3200    3.3300    3.3400    3.3500
    3.3600    3.3700    3.3800    3.3900    3.4000    3.4100    3.4200    3.4300
    3.4400    3.4500    3.4600    3.4700    3.4800    3.4900    3.5000    3.5100
    3.5200    3.5300    3.5400    3.5500    3.5600    3.5700    3.5800    3.5900
    3.6000    3.6100    3.6200    3.6300    3.6400    3.6500    3.6600    3.6700
    3.6800    3.6900    3.7000    3.7100    3.7200    3.7300    3.7400    3.7500
    3.7600    3.7700    3.7800    3.7900    3.8000    3.8100    3.8200    3.8300
    3.8400    3.8500    3.8600    3.8700    3.8800    3.8900    3.9000    3.9100
    3.9200    3.9300    3.9400    3.9500    3.9600    3.9700    3.9800    3.9900
    4.0000    4.0100    4.0200    4.0300    4.0400    4.0500    4.0600    4.0700
    4.0800    4.0900    4.1000    4.1100    4.1200    4.1300    4.1400    4.1500
    4.1600    4.1700    4.1800    4.1900    4.2000    4.2100    4.2200    4.2300
    4.2400    4.2500    4.2600    4.2700    4.2800    4.2900    4.3000    4.3100
    4.3200    4.3300    4.3400    4.3500    4.3600    4.3700    4.3800    4.3900
    4.4000    4.4100    4.4200    4.4300    4.4400    4.4500    4.4600    4.4700
    4.4800    4.4900    4.5000    4.5100    4.5200    4.5300    4.5400    4.5500
    4.5600    4.5700    4.5800    4.5900    4.6000    4.6100    4.6200    4.6300
    4.6400    4.6500    4.6600    4.6700    4.6800    4.6900    4.7000    4.7100
    4.7200    4.7300    4.7400    4.7500    4.7600    4.7700    4.7800    4.7900
    4.8000    4.8100    4.8200    4.8300    4.8400    4.8500    4.8600    4.8700
    4.8800    4.8900    4.9000    4.9100    4.9200    4.9300    4.9400    4.9500
    4.9600    4.9700    4.9800    4.9900    5.0000    5.0100    5.0200    5.0300
    5.0400    5.0500    5.0600    5.0700    5.0800    5.0900    5.1000    5.1100
    5.1200    5.1300    5.1400    5.1500    5.1600    5.1700    5.1800    5.1900
    5.2000    5.2100    5.2200    5.2300    5.2400    5.2500    5.2600    5.2700
    5.2800    5.2900    5.3000    5.3100    5.3200    5.3300    5.3400    5.3500
    5.3600    5.3700    5.3800    5.3900    5.4000    5.4100    5.4200    5.4300
    5.4400    5.4500    5.4600    5.4700    5.4800    5.4900    5.5000    5.5100
    5.5200    5.5300    5.5400    5.5500    5.5600    5.5700    5.5800    5.5900
    5.6000    5.6100    5.6200    5.6300    5.6400    5.6500    5.6600    5.6700
    5.6800    5.6900    5.7000    5.7100    5.7200    5.7300    5.7400    5.7500
    5.7600    5.7700    5.7800    5.7900    5.8000    5.8100    5.8200    5.8300
    5.8400    5.8500    5.8600    5.8700    5.8800    5.8900    5.9000    5.9100
    5.9200    5.9300    5.9400    5.9500    5.9600    5.9700    5.9800    5.9900
    6.0000    6.0100    6.0200    6.0300    6.0400    6.0500    6.0600    6.0700
    6.0800    6.0900    6.1000    6.1100    6.1200    6.1300    6.1400    6.1500
    6.1600    6.1700    6.1800    6.1900    6.2000    6.2100    6.2200    6.2300
    6.2400    6.2500    6.2600    6.2700    6.2800    6.2900    6.3000    6.3100
    6.3200    6.3300    6.3400    6.3500    6.3600    6.3700    6.3800    6.3900
    6.4000    6.4100    6.4200    6.4300    6.4400    6.4500    6.4600    6.4700
    6.4800    6.4900    6.5000    6.5100    6.5200    6.5300    6.5400    6.5500
    6.5600    6.5700    6.5800    6.5900    6.6000    6.6100    6.6200    6.6300
    6.6400    6.6500    6.6600    6.6700    6.6800    6.6900    6.7000    6.7100
    6.7200    6.7300    6.7400    6.7500    6.7600    6.7700    6.7800    6.7900
    6.8000    6.8100    6.8200    6.8300    6.8400    6.8500    6.8600    6.8700
    6.8800    6.8900    6.9000    6.9100    6.9200    6.9300    6.9400    6.9500
    6.9600    6.9700    6.9800    6.9900    7.0000    7.0100    7.0200    7.0300
    7.0400    7.0500    7.0600    7.0700    7.0800    7.0900    7.1000    7.1100
    7.1200    7.1300    7.1400    7.1500    7.1600    7.1700    7.1800    7.1900
    7.2000    7.2100    7.2200    7.2300    7.2400    7.2500    7.2600    7.2700
    7.2800    7.2900    7.3000    7.3100    7.3200    7.3300    7.3400    7.3500
    7.3600    7.3700    7.3800    7.3900    7.4000    7.4100    7.4200    7.4300
    7.4400    7.4500    7.4600    7.4700    7.4800    7.4900
   </PP_R>
   <PP_RAB type="real"  size=" 750" columns="8">
    0.0100    0.0100    0.0100    0.0100    0.0100    0.0100    0.0100    0.0100
    0.0100    0.0100    0.0100    0.0100    0.0100    0.0100    0.0100    0.0100
    0.0100    0.0100    0.0100    0.0100    0.0100    0.0100    0.0100    0.0100
    0.0100    0.0100    0.0100    0.0100    0.0100    0.0100    0.0100    0.0100
    0.0100    0.0100    0.0100    0.0100    0.0100    0.0100    0.0100    0.0100
    0.0100    0.0100    0.0100    0.0100    0.0100    0.0100    0.0100    0.0100
    0.0100    0.0100    0.0100    0.0100    0.0100    0.0100    0.0100    0.0100
    0.0100    0.0100    0.0100    0.0100    0.0100    0.0100    0.0100    0.0100
    0.0100    0.0100    0.0100    0.0100    0.0100    0.0100    0.0100    0.0100
    0.0100    0.0100    0.0100    0.0100    0.0100    0.0100    0.0100    0.0100
    0.0100    0.0100    0.0100    0.0100    0.0100    0.0100    0.0100    0.0100
    0.0100    0.0100    0.0100    0.0100    0.0100    0.0100    0.0100    0.0100
    0.0100    0.0100    0.0100    0.0100    0.0100    0.0100    0.0100    0.0100
    0.0100    0.0100    0.0100    0.0100    0.0100    0.0100    0.0100    0.0100
    0.0100    0.0100    0.0100    0.0100    0.0100    0.0100    0.0100    0.0100
    0.0100    0.0100    0.0100    0.0100    0.0100    0.0100    0.0100    0.0100
    0.0100    0.0100    0.0100    0.0100    0.0100    0.0100    0.0100    0.0100
    0.0100    0.0100    0.0100    0.0100    0.0100    0.0100    0.0100    0.0100
    0.0100    0.0100    0.0100    0.0100    0.0100    0.0100    0.0100    0.0100
    0.0100    0.0100    0.0100    0.0100    0.0100    0.0100    0.0100    0.0100
    0.0100    0.0100    0.0100    0.0100    0.0100    0.0100    0.0100    0.0100
    0.0100    0.0100    0.0100    0.0100    0.0100    0.0100    0.0100    0.0100
    0.0100    0.0100    0.0100    0.0100    0.0100    0.0100    0.0100    0.0100
    0.0100    0.0100    0.0100    0.0100    0.0100    0.0100    0.0100    0.0100
    0.0100    0.0100    0.0100    0.0100    0.0100    0.0100    0.0100    0.0100
    0.0100    0.0100    0.0100    0.0100    0.0100    0.0100    0.0100    0.0100
    0.0100    0.0100    0.0100    0.0100    0.0100    0.0100    0.0100    0.0100
    0.0100    0.0100    0.0100    0.0100    0.0100    0.0100    0.0100    0.0100
    0.0100    0.0100    0.0100    0.0100    0.0100    0.0100    0.0100    0.0100
    0.0100    0.0100    0.0100    0.0100    0.0100    0.0100    0.0100    0.0100
    0.0100    0.0100    0.0100    0.0100    0.0100    0.0100    0.0100    0.0100
    0.0100    0.0100    0.0100    0.0100    0.0100    0.0100    0.0100    0.0100
    0.0100    0.0100    0.0100    0.0100    0.0100    0.0100    0.0100    0.0100
    0.0100    0.0100    0.0100    0.0100    0.0100    0.0100    0.0100    0.0100
    0.0100    0.0100    0.0100    0.0100    0.0100    0.0100    0.0100    0.0100
    0.0100    0.0100    0.0100    0.0100    0.0100    0.0100    0.0100    0.0100
    0.0100    0.0100    0.0100    0.0100    0.0100    0.0100    0.0100    0.0100
    0.0100    0.0100    0.0100    0.0100    0.0100    0.0100    0.0100    0.0100
    0.0100    0.0100    0.0100    0.0100    0.0100    0.0100    0.0100    0.0100
    0.0100    0.0100    0.0100    0.0100    0.0100    0.0100    0.0100    0.0100
    0.0100    0.0100    0.0100    0.0100    0.0100    0.0100    0.0100    0.0100
    0.0100    0.0100    0.0100    0.0100    0.0100    0.0100    0.0100    0.0100
    0.0100    0.0100    0.0100    0.0100    0.0100    0.0100    0.0100    0.0100
    0.0100    0.0100    0.0100    0.0100    0.0100    0.0100    0.0100    0.0100
    0.0100    0.0100    0.0100    0.0100    0.0100    0.0100    0.0100    0.0100
    0.0100    0.0100    0.0100    0.0100    0.0100    0.0100    0.0100    0.0100
    0.0100    0.0100    0.0100    0.0100    0.0100    0.0100    0.0100    0.0100
    0.0100    0.0100    0.0100    0.0100    0.0100    0.0100    0.0100    0.0100
    0.0100    0.0100    0.0100    0.0100    0.0100    0.0100    0.0100    0.0100
    0.0100    0.0100    0.0100    0.0100    0.0100    0.0100    0.0100    0.0100
    0.0100    0.0100    0.0100    0.0100    0.0100    0.0100    0.0100    0.0100
    0.0100    0.0100    0.0100    0.0100    0.0100    0.0100    0.0100    0.0100
    0.0100    0.0100    0.0100    0.0100    0.0100    0.0100    0.0100    0.0100
    0.0100    0.0100    0.0100    0.0100    0.0100    0.0100    0.0100    0.0100
    0.0100    0.0100    0.0100    0.0100    0.0100    0.0100    0.0100    0.0100
    0.0100    0.0100    0.0100    0.0100    0.0100    0.0100    0.0100    0.0100
    0.0100    0.0100    0.0100    0.0100    0.0100    0.0100    0.0100    0.0100
    0.0100    0.0100    0.0100    0.0100    0.0100    0.0100    0.0100    0.0100
    0.0100    0.0100    0.0100    0.0100    0.0100    0.0100    0.0100    0.0100
    0.0100    0.0100    0.0100    0.0100    0.0100    0.0100    0.0100    0.0100
    0.0100    0.0100    0.0100    0.0100    0.0100    0.0100    0.0100    0.0100
    0.0100    0.0100    0.0100    0.0100    0.0100    0.0100    0.0100    0.0100
    0.0100    0.0100    0.0100    0.0100    0.0100    0.0100    0.0100    0.0100
    0.0100    0.0100    0.0100    0.0100    0.0100    0.0100    0.0100    0.0100
    0.0100    0.0100    0.0100    0.0100    0.0100    0.0100    0.0100    0.0100
    0.0100    0.0100    0.0100    0.0100    0.0100    0.0100    0.0100    0.0100
    0.0100    0.0100    0.0100    0.0100    0.0100    0.0100    0.0100    0.0100
    0.0100    0.0100    0.0100    0.0100    0.0100    0.0100    0.0100    0.0100
    0.0100    0.0100    0.0100    0.0100    0.0100    0.0100    0.0100    0.0100
    0.0100    0.0100    0.0100    0.0100    0.0100    0.0100    0.0100    0.0100
    0.0100    0.0100    0.0100    0.0100    0.0100    0.0100    0.0100    0.0100
    0.0100    0.0100    0.0100    0.0100    0.0100    0.0100    0.0100    0.0100
    0.0100    0.0100    0.0100    0.0100    0.0100    0.0100    0.0100    0.0100
    0.0100    0.0100    0.0100    0.0100    0.0100    0.0100    0.0100    0.0100
    0.0100    0.0100    0.0100    0.0100    0.0100    0.0100    0.0100    0.0100
    0.0100    0.0100    0.0100    0.0100    0.0100    0.0100    0.0100    0.0100
    0.0100    0.0100    0.0100    0.0100    0.0100    0.0100    0.0100    0.0100
    0.0100    0.0100    0.0100    0.0100    0.0100    0.0100    0.0100    0.0100
    0.0100    0.0100    0.0100    0.0100    0.0100    0.0100    0.0100    0.0100
    0.0100    0.0100    0.0100    0.0100    0.0100    0.0100    0.0100    0.0100
    0.0100    0.0100    0.0100    0.0100    0.0100    0.0100    0.0100    0.0100
    0.0100    0.0100    0.0100    0.0100    0.0100    0.0100    0.0100    0.0100
    0.0100    0.0100    0.0100    0.0100    0.0100    0.0100    0.0100    0.0100
    0.0100    0.0100    0.0100    0.0100    0.0100    0.0100    0.0100    0.0100
    0.0100    0.0100    0.0100    0.0100    0.0100    0.0100    0.0100    0.0100
    0.0100    0.0100    0.0100    0.0100    0.0100    0.0100    0.0100    0.0100
    0.0100    0.0100    0.0100    0.0100    0.0100    0.0100    0.0100    0.0100
    0.0100    0.0100    0.0100    0.0100    0.0100    0.0100    0.0100    0.0100
    0.0100    0.0100    0.0100    0.0100    0.0100    0.0100    0.0100    0.0100
    0.0100    0.0100    0.0100    0.0100    0.0100    0.0100    0.0100    0.0100
    0.0100    0.0100    0.0100    0.0100    0.0100    0.0100    0.0100    0.0100
    0.0100    0.0100    0.0100    0.0100    0.0100    0.0100    0.0100    0.0100
    0.0100    0.0100    0.0100    0.0100    0.0100    0.0100    0.0100    0.0100
    0.0100    0.0100    0.0100    0.0100    0.0100    0.0100
   </PP_RAB>
 </PP_MESH>
  <PP_LOCAL type="real"  size=" 750" columns="4">
   -2.6953492471E+01   -2.6951535883E+01   -2.6945672090E+01   -2.6935918927E+01
   -2.6922305572E+01   -2.6904871781E+01   -2.6883666875E+01   -2.6858748520E+01
   -2.6830181379E+01   -2.6798035693E+01   -2.6762385842E+01   -2.6723308946E+01
   -2.6680883551E+01   -2.6635188436E+01   -2.6586301557E+01   -2.6534299149E+01
   -2.6479254997E+01   -2.6421239861E+01   -2.6360321054E+01   -2.6296562169E+01
   -2.6230022924E+01   -2.6160759127E+01   -2.6088822728E+01   -2.6014261960E+01
   -2.5937121533E+01   -2.5857442894E+01   -2.5775264509E+01   -2.5690622183E+01
   -2.5603549395E+01   -2.5514077644E+01   -2.5422236794E+01   -2.5328055423E+01
   -2.5231561159E+01   -2.5132781006E+01   -2.5031741662E+01   -2.4928469810E+01
   -2.4822992401E+01   -2.4715336911E+01   -2.4605531579E+01   -2.4493605628E+01
   -2.4379589459E+01   -2.4263514827E+01   -2.4145414993E+01   -2.4025324860E+01
   -2.3903281078E+01   -2.3779322144E+01   -2.3653488468E+01   -2.3525822425E+01
   -2.3396368395E+01   -2.3265172775E+01   -2.3132283981E+01   -2.2997752435E+01
   -2.2861630530E+01   -2.2723972592E+01   -2.2584834818E+01   -2.2444275213E+01
   -2.2302353506E+01   -2.2159131063E+01   -2.2014670788E+01   -2.1869037020E+01
   -2.1722295417E+01   -2.1574512838E+01   -2.1425757222E+01   -2.1276097459E+01
   -2.1125603256E+01   -2.0974345013E+01   -2.0822393679E+01   -2.0669820624E+01
   -2.0516697502E+01   -2.0363096115E+01   -2.0209088286E+01   -2.0054745723E+01
   -1.9900139895E+01   -1.9745341908E+01   -1.9590422382E+01   -1.9435451334E+01
   -1.9280498069E+01   -1.9125631072E+01   -1.8970917902E+01   -1.8816425099E+01
   -1.8662218091E+01   -1.8508361105E+01   -1.8354917093E+01   -1.8201947649E+01
   -1.8049512945E+01   -1.7897671667E+01   -1.7746480955E+01   -1.7595996351E+01
   -1.7446271752E+01   -1.7297359367E+01   -1.7149309681E+01   -1.7002171420E+01
   -1.6855991524E+01   -1.6710815126E+01   -1.6566685525E+01   -1.6423644177E+01
   -1.6281730679E+01   -1.6140982755E+01   -1.6001436259E+01   -1.5863125161E+01
   -1.5726081548E+01   -1.5590335626E+01   -1.5455915718E+01   -1.5322848265E+01
   -1.5191157837E+01   -1.5060867128E+01   -1.4931996967E+01   -1.4804566318E+01
   -1.4678592291E+01   -1.4554090141E+01   -1.4431073273E+01   -1.4309553248E+01
   -1.4189539782E+01   -1.4071040750E+01   -1.3954062183E+01   -1.3838608268E+01
   -1.3724681344E+01   -1.3612281897E+01   -1.3501408555E+01   -1.3392058268E+01
   -1.3284225447E+01   -1.3177873602E+01   -1.3072959672E+01   -1.2969574818E+01
   -1.2867667713E+01   -1.2767226383E+01   -1.2668234116E+01   -1.2570672124E+01
   -1.2474519564E+01   -1.2379753512E+01   -1.2286348924E+01   -1.2194278597E+01
   -1.2103513857E+01   -1.2014026427E+01   -1.1925789047E+01   -1.1838775424E+01
   -1.1752960202E+01   -1.1668318917E+01   -1.1584827965E+01   -1.1502464566E+01
   -1.1421206725E+01   -1.1341033201E+01   -1.1261923468E+01   -1.1183857685E+01
   -1.1106816658E+01   -1.1030781814E+01   -1.0955735163E+01   -1.0881659269E+01
   -1.0808537220E+01   -1.0736352595E+01   -1.0665089442E+01   -1.0594732239E+01
   -1.0525265877E+01   -1.0456675625E+01   -1.0388947110E+01   -1.0322066289E+01
   -1.0256019425E+01   -1.0190793065E+01   -1.0126374015E+01   -1.0062749324E+01
   -9.9999062592E+00   -9.9378322868E+00   -9.8765150565E+00   -9.8159423821E+00
   -9.7561022263E+00   -9.6969826852E+00   -9.6385719745E+00   -9.5808584163E+00
   -9.5238304273E+00   -9.4674765083E+00   -9.4117852342E+00   -9.3567452461E+00
   -9.3023452682E+00   -9.2485741961E+00   -9.1954211890E+00   -9.1428756512E+00
   -9.0909272278E+00   -9.0395657982E+00   -8.9887814689E+00   -8.9385645678E+00
   -8.8889056376E+00   -8.8397954301E+00   -8.7912249001E+00   -8.7431852004E+00
   -8.6956676761E+00   -8.6486638592E+00   -8.6021654642E+00   -8.5561643824E+00
   -8.5106526779E+00   -8.4656225828E+00   -8.4210664926E+00   -8.3769769620E+00
   -8.3333467010E+00   -8.2901685706E+00   -8.2474355790E+00   -8.2051408778E+00
   -8.1632777584E+00   -8.1218396484E+00   -8.0808201082E+00   -8.0402128276E+00
   -8.0000116227E+00   -7.9602104325E+00   -7.9208033162E+00   -7.8817844500E+00
   -7.8431481241E+00   -7.8048887406E+00   -7.7670008097E+00   -7.7294789481E+00
   -7.6923178759E+00   -7.6555124142E+00   -7.6190574828E+00   -7.5829480979E+00
   -7.5471793695E+00   -7.5117464998E+00   -7.4766447802E+00   -7.4418695901E+00
   -7.4074163942E+00   -7.3732807411E+00   -7.3394582609E+00   -7.3059446633E+00
   -7.2727357364E+00   -7.2398273444E+00   -7.2072154259E+00   -7.1748959924E+00
   -7.1428651268E+00   -7.1111189813E+00   -7.0796537765E+00   -7.0484657996E+00
   -7.0175514026E+00   -6.9869070017E+00   -6.9565290750E+00   -6.9264141619E+00
   -6.8965588612E+00   -6.8669598304E+00   -6.8376137838E+00   -6.8085174919E+00
   -6.7796677797E+00   -6.7510615261E+00   -6.7226956621E+00   -6.6945671704E+00
   -6.6666730837E+00   -6.6390104841E+00   -6.6115765019E+00   -6.5843683147E+00
   -6.5573831463E+00   -6.5306182658E+00   -6.5040709868E+00   -6.4777386663E+00
   -6.4516187039E+00   -6.4257085412E+00   -6.4000056606E+00   -6.3745075845E+00
   -6.3492118748E+00   -6.3241161318E+00   -6.2992179938E+00   -6.2745151360E+00
   -6.2500052698E+00   -6.2256861425E+00   -6.2015555363E+00   -6.1776112673E+00
   -6.1538511856E+00   -6.1302731740E+00   -6.1068751478E+00   -6.0836550539E+00
   -6.0606108704E+00   -6.0377406057E+00   -6.0150422984E+00   -5.9925140164E+00
   -5.9701538563E+00   -5.9479599433E+00   -5.9259304300E+00   -5.9040634967E+00
   -5.8823573501E+00   -5.8608102232E+00   -5.8394203751E+00   -5.8181860900E+00
   -5.7971056768E+00   -5.7761774692E+00   -5.7553998247E+00   -5.7347711242E+00
   -5.7142897719E+00   -5.6939541947E+00   -5.6737628419E+00   -5.6537141844E+00
   -5.6338067150E+00   -5.6140389475E+00   -5.5944094164E+00   -5.5749166769E+00
   -5.5555593038E+00   -5.5363358921E+00   -5.5172450560E+00   -5.4982854287E+00
   -5.4794556621E+00   -5.4607544266E+00   -5.4421804106E+00   -5.4237323205E+00
   -5.4054088799E+00   -5.3872088297E+00   -5.3691309277E+00   -5.3511739484E+00
   -5.3333366826E+00   -5.3156179370E+00   -5.2980165343E+00   -5.2805313127E+00
   -5.2631611257E+00   -5.2459048418E+00   -5.2287613443E+00   -5.2117295310E+00
   -5.1948083141E+00   -5.1779966198E+00   -5.1612933882E+00   -5.1446975732E+00
   -5.1282081417E+00   -5.1118240742E+00   -5.0955443640E+00   -5.0793680173E+00
   -5.0632940526E+00   -5.0473215011E+00   -5.0314494061E+00   -5.0156768229E+00
   -5.0000028184E+00   -4.9844264714E+00   -4.9689468721E+00   -4.9535631219E+00
   -4.9382743332E+00   -4.9230796295E+00   -4.9079781450E+00   -4.8929690245E+00
   -4.8780514231E+00   -4.8632245063E+00   -4.8484874498E+00   -4.8338394391E+00
   -4.8192796695E+00   -4.8048073462E+00   -4.7904216835E+00   -4.7761219056E+00
   -4.7619072455E+00   -4.7477769454E+00   -4.7337302568E+00   -4.7197664396E+00
   -4.7058847626E+00   -4.6920845031E+00   -4.6783649471E+00   -4.6647253885E+00
   -4.6511651298E+00   -4.6376834814E+00   -4.6242797617E+00   -4.6109532970E+00
   -4.5977034212E+00   -4.5845294761E+00   -4.5714308107E+00   -4.5584067817E+00
   -4.5454567529E+00   -4.5325800955E+00   -4.5197761876E+00   -4.5070444146E+00
   -4.4943841684E+00   -4.4817948480E+00   -4.4692758591E+00   -4.4568266140E+00
   -4.4444465314E+00   -4.4321350366E+00   -4.4198915612E+00   -4.4077155430E+00
   -4.3956064261E+00   -4.3835636606E+00   -4.3715867026E+00   -4.3596750142E+00
   -4.3478280633E+00   -4.3360453236E+00   -4.3243262744E+00   -4.3126704008E+00
   -4.3010771932E+00   -4.2895461476E+00   -4.2780767655E+00   -4.2666685534E+00
   -4.2553210234E+00   -4.2440336925E+00   -4.2328060830E+00   -4.2216377222E+00
   -4.2105281422E+00   -4.1994768804E+00   -4.1884834785E+00   -4.1775474835E+00
   -4.1666684469E+00   -4.1558459248E+00   -4.1450794780E+00   -4.1343686718E+00
   -4.1237130760E+00   -4.1131122648E+00   -4.1025658167E+00   -4.0920733148E+00
   -4.0816343460E+00   -4.0712485018E+00   -4.0609153777E+00   -4.0506345732E+00
   -4.0404056920E+00   -4.0302283418E+00   -4.0201021340E+00   -4.0100266842E+00
   -4.0000016117E+00   -3.9900265397E+00   -3.9801010948E+00   -3.9702249078E+00
   -3.9603976128E+00   -3.9506188478E+00   -3.9408882540E+00   -3.9312054764E+00
   -3.9215701635E+00   -3.9119819670E+00   -3.9024405423E+00   -3.8929455479E+00
   -3.8834966457E+00   -3.8740935009E+00   -3.8647357820E+00   -3.8554231606E+00
   -3.8461553114E+00   -3.8369319124E+00   -3.8277526445E+00   -3.8186171917E+00
   -3.8095252411E+00   -3.8004764827E+00   -3.7914706094E+00   -3.7825073172E+00
   -3.7735863046E+00   -3.7647072733E+00   -3.7558699276E+00   -3.7470739747E+00
   -3.7383191243E+00   -3.7296050892E+00   -3.7209315844E+00   -3.7122983280E+00
   -3.7037050403E+00   -3.6951514446E+00   -3.6866372663E+00   -3.6781622338E+00
   -3.6697260775E+00   -3.6613285307E+00   -3.6529693289E+00   -3.6446482100E+00
   -3.6363649143E+00   -3.6281191847E+00   -3.6199107661E+00   -3.6117394058E+00
   -3.6036048535E+00   -3.5955068610E+00   -3.5874451824E+00   -3.5794195739E+00
   -3.5714297941E+00   -3.5634756035E+00   -3.5555567649E+00   -3.5476730431E+00
   -3.5398242050E+00   -3.5320100197E+00   -3.5242302581E+00   -3.5164846933E+00
   -3.5087731002E+00   -3.5010952560E+00   -3.4934509394E+00   -3.4858399315E+00
   -3.4782620149E+00   -3.4707169743E+00   -3.4632045962E+00   -3.4557246691E+00
   -3.4482769830E+00   -3.4408613300E+00   -3.4334775038E+00   -3.4261253000E+00
   -3.4188045160E+00   -3.4115149506E+00   -3.4042564047E+00   -3.3970286806E+00
   -3.3898315825E+00   -3.3826649161E+00   -3.3755284888E+00   -3.3684221097E+00
   -3.3613455893E+00   -3.3542987398E+00   -3.3472813751E+00   -3.3402933105E+00
   -3.3333343628E+00   -3.3264043505E+00   -3.3195030934E+00   -3.3126304130E+00
   -3.3057861321E+00   -3.2989700750E+00   -3.2921820675E+00   -3.2854219369E+00
   -3.2786895118E+00   -3.2719846221E+00   -3.2653070994E+00   -3.2586567764E+00
   -3.2520334872E+00   -3.2454370673E+00   -3.2388673536E+00   -3.2323241842E+00
   -3.2258073986E+00   -3.2193168374E+00   -3.2128523428E+00   -3.2064137580E+00
   -3.2000009276E+00   -3.1936136973E+00   -3.1872519141E+00   -3.1809154263E+00
   -3.1746040833E+00   -3.1683177357E+00   -3.1620562353E+00   -3.1558194352E+00
   -3.1496071894E+00   -3.1434193532E+00   -3.1372557831E+00   -3.1311163365E+00
   -3.1250008722E+00   -3.1189092498E+00   -3.1128413302E+00   -3.1067969754E+00
   -3.1007760484E+00   -3.0947784131E+00   -3.0888039347E+00   -3.0828524794E+00
   -3.0769239143E+00   -3.0710181076E+00   -3.0651349286E+00   -3.0592742473E+00
   -3.0534359351E+00   -3.0476198641E+00   -3.0418259074E+00   -3.0360539392E+00
   -3.0303038345E+00   -3.0245754694E+00   -3.0188687207E+00   -3.0131834664E+00
   -3.0075195852E+00   -3.0018769569E+00   -2.9962554620E+00   -2.9906549821E+00
   -2.9850753995E+00   -2.9795165974E+00   -2.9739784601E+00   -2.9684608724E+00
   -2.9629637203E+00   -2.9574868904E+00   -2.9520302701E+00   -2.9465937480E+00
   -2.9411772130E+00   -2.9357805553E+00   -2.9304036655E+00   -2.9250464353E+00
   -2.9197087571E+00   -2.9143905239E+00   -2.9090916298E+00   -2.9038119695E+00
   -2.8985514383E+00   -2.8933099326E+00   -2.8880873493E+00   -2.8828835861E+00
   -2.8776985415E+00   -2.8725321147E+00   -2.8673842055E+00   -2.8622547147E+00
   -2.8571435434E+00   -2.8520505938E+00   -2.8469757686E+00   -2.8419189712E+00
   -2.8368801057E+00   -2.8318590769E+00   -2.8268557902E+00   -2.8218701519E+00
   -2.8169020686E+00   -2.8119514478E+00   -2.8070181977E+00   -2.8021022269E+00
   -2.7972034448E+00   -2.7923217614E+00   -2.7874570874E+00   -2.7826093340E+00
   -2.7777784131E+00   -2.7729642371E+00   -2.7681667192E+00   -2.7633857731E+00
   -2.7586213130E+00   -2.7538732538E+00   -2.7491415109E+00   -2.7444260005E+00
   -2.7397266391E+00   -2.7350433438E+00   -2.7303760326E+00   -2.7257246236E+00
   -2.7210890357E+00   -2.7164691883E+00   -2.7118650015E+00   -2.7072763957E+00
   -2.7027032919E+00   -2.6981456118E+00   -2.6936032774E+00   -2.6890762114E+00
   -2.6845643368E+00   -2.6800675775E+00   -2.6755858575E+00   -2.6711191014E+00
   -2.6666672346E+00   -2.6622301827E+00   -2.6578078718E+00   -2.6534002286E+00
   -2.6490071803E+00   -2.6446286544E+00   -2.6402645792E+00   -2.6359148831E+00
   -2.6315794952E+00   -2.6272583451E+00   -2.6229513627E+00   -2.6186584784E+00