<UPF version="2.0.1">
  <PP_INFO>

 This pseudopotential file has been produced using the code
 ONCVPSP  (Optimized Norm-Conservinng Vanderbilt PSeudopotential)
 fully-relativistic version 4.0.1 06/04/2019 by D. R. Hamann
 The code is available through a link at URL www.mat-simresearch.com.
 Documentation with the package provides a full discription of the
 input data below.


 While it is not required under the terms of the GNU GPL, it is
 suggested that you cite D. R. Hamann, Phys. Rev. B 88, 085117 (2013)
 in any publication using these pseudopotentials.

    <PP_INPUTFILE>
# ATOM AND REFERENCE CONFIGURATION
# atsym  z   nc   nv     iexc    psfile
  O  8.00    1    2       3      upf
#
#   n    l    f        energy (Ha)
    1    0    2.00
    2    0    2.00
    2    1    4.00
#
# PSEUDOPOTENTIAL AND OPTIMIZATION
# lmax
    2
#
#   l,   rc,     ep,   ncon, nbas, qcut
    0   1.35000  -0.88000    4    8   8.40000
    1   1.45000  -0.33000    4    8   9.30000
    2   1.25000   0.10000    4    8   6.00000
#
# LOCAL POTENTIAL
# lloc, lpopt,  rc(5),   dvloc0
    4    5   1.20000      0.00000
#
# VANDERBILT-KLEINMAN-BYLANDER PROJECTORs
# l, nproj, debl
    0    2   1.00000
    1    2   1.00000
    2    1   1.00000
#
# MODEL CORE CHARGE
# icmod, fcfact, rcfact
    3   4.00000   1.50000
#
# LOG DERIVATIVE ANALYSIS
# epsh1, epsh2, depsh
  -12.00   12.00    0.02
#
# OUTPUT GRID
# rlmax, drl
    6.00    0.01
#
# TEST CONFIGURATIONS
# ncnf
    0
# nvcnf
#   n    l    f
    </PP_INPUTFILE>
  </PP_INFO>
  <!--                               -->
  <!-- END OF HUMAN READABLE SECTION -->
  <!--                               -->
    <PP_HEADER
       generated="Generated using ONCVPSP code by D. R. Hamann"
       author="anonymous"
       date="220414"
       comment=""
       element="O "
       pseudo_type="NC"
       relativistic="full"
       is_ultrasoft="F"
       is_paw="F"
       is_coulomb="F"
       has_so="T"
       has_wfc="F"
       has_gipaw="F"
       core_correction="T"
       functional="PZ"
       z_valence="    6.00"
       total_psenergy="  -3.14830532454E+01"
       rho_cutoff="   9.25000000000E+00"
       l_max="2"
       l_local="-1"
       mesh_size="   926"
       number_of_wfc="3"
       number_of_proj="8"/>
 <PP_MESH>
   <PP_R type="real"  size=" 926" columns="8">
    0.0000    0.0100    0.0200    0.0300    0.0400    0.0500    0.0600    0.0700
    0.0800    0.0900    0.1000    0.1100    0.1200    0.1300    0.1400    0.1500
    0.1600    0.1700    0.1800    0.1900    0.2000    0.2100    0.2200    0.2300
    0.2400    0.2500    0.2600    0.2700    0.2800    0.2900    0.3000    0.3100
    0.3200    0.3300    0.3400    0.3500    0.3600    0.3700    0.3800    0.3900
    0.4000    0.4100    0.4200    0.4300    0.4400    0.4500    0.4600    0.4700
    0.4800    0.4900    0.5000    0.5100    0.5200    0.5300    0.5400    0.5500
    0.5600    0.5700    0.5800    0.5900    0.6000    0.6100    0.6200    0.6300
    0.6400    0.6500    0.6600    0.6700    0.6800    0.6900    0.7000    0.7100
    0.7200    0.7300    0.7400    0.7500    0.7600    0.7700    0.7800    0.7900
    0.8000    0.8100    0.8200    0.8300    0.8400    0.8500    0.8600    0.8700
    0.8800    0.8900    0.9000    0.9100    0.9200    0.9300    0.9400    0.9500
    0.9600    0.9700    0.9800    0.9900    1.0000    1.0100    1.0200    1.0300
    1.0400    1.0500    1.0600    1.0700    1.0800    1.0900    1.1000    1.1100
    1.1200    1.1300    1.1400    1.1500    1.1600    1.1700    1.1800    1.1900
    1.2000    1.2100    1.2200    1.2300    1.2400    1.2500    1.2600    1.2700
    1.2800    1.2900    1.3000    1.3100    1.3200    1.3300    1.3400    1.3500
    1.3600    1.3700    1.3800    1.3900    1.4000    1.4100    1.4200    1.4300
    1.4400    1.4500    1.4600    1.4700    1.4800    1.4900    1.5000    1.5100
    1.5200    1.5300    1.5400    1.5500    1.5600    1.5700    1.5800    1.5900
    1.6000    1.6100    1.6200    1.6300    1.6400    1.6500    1.6600    1.6700
    1.6800    1.6900    1.7000    1.7100    1.7200    1.7300    1.7400    1.7500
    1.7600    1.7700    1.7800    1.7900    1.8000    1.8100    1.8200    1.8300
    1.8400    1.8500    1.8600    1.8700    1.8800    1.8900    1.9000    1.9100
    1.9200    1.9300    1.9400    1.9500    1.9600    1.9700    1.9800    1.9900
    2.0000    2.0100    2.0200    2.0300    2.0400    2.0500    2.0600    2.0700
    2.0800    2.0900    2.1000    2.1100    2.1200    2.1300    2.1400    2.1500
    2.1600    2.1700    2.1800    2.1900    2.2000    2.2100    2.2200    2.2300
    2.2400    2.2500    2.2600    2.2700    2.2800    2.2900    2.3000    2.3100
    2.3200    2.3300    2.3400    2.3500    2.3600    2.3700    2.3800    2.3900
    2.4000    2.4100    2.4200    2.4300    2.4400    2.4500    2.4600    2.4700
    2.4800    2.4900    2.5000    2.5100    2.5200    2.5300    2.5400    2.5500
    2.5600    2.5700    2.5800    2.5900    2.6000    2.6100    2.6200    2.6300
    2.6400    2.6500    2.6600    2.6700    2.6800    2.6900    2.7000    2.7100
    2.7200    2.7300    2.7400    2.7500    2.7600    2.7700    2.7800    2.7900
    2.8000    2.8100    2.8200    2.8300    2.8400    2.8500    2.8600    2.8700
    2.8800    2.8900    2.9000    2.9100    2.9200    2.9300    2.9400    2.9500
    2.9600    2.9700    2.9800    2.9900    3.0000    3.0100    3.0200    3.0300
    3.0400    3.0500    3.0600    3.0700    3.0800    3.0900    3.1000    3.1100
    3.1200    3.1300    3.1400    3.1500    3.1600    3.1700    3.1800    3.1900
    3.2000    3.2100    3.2200    3.2300    3.2400    3.2500    3.2600    3.2700
    3.2800    3.2900    3.3000    3.3100    3.3200    3.3300    3.3400    3.3500
    3.3600    3.3700    3.3800    3.3900    3.4000    3.4100    3.4200    3.4300
    3.4400    3.4500    3.4600    3.4700    3.4800    3.4900    3.5000    3.5100
    3.5200    3.5300    3.5400    3.5500    3.5600    3.5700    3.5800    3.5900
    3.6000    3.6100    3.6200    3.6300    3.6400    3.6500    3.6600    3.6700
    3.6800    3.6900    3.7000    3.7100    3.7200    3.7300    3.7400    3.7500
    3.7600    3.7700    3.7800    3.7900    3.8000    3.8100    3.8200    3.8300
    3.8400    3.8500    3.8600    3.8700    3.8800    3.8900    3.9000    3.9100
    3.9200    3.9300    3.9400    3.9500    3.9600    3.9700    3.9800    3.9900
    4.0000    4.0100    4.0200    4.0300    4.0400    4.0500    4.0600    4.0700
    4.0800    4.0900    4.1000    4.1100    4.1200    4.1300    4.1400    4.1500
    4.1600    4.1700    4.1800    4.1900    4.2000    4.2100    4.2200    4.2300
    4.2400    4.2500    4.2600    4.2700    4.2800    4.2900    4.3000    4.3100
    4.3200    4.3300    4.3400    4.3500    4.3600    4.3700    4.3800    4.3900
    4.4000    4.4100    4.4200    4.4300    4.4400    4.4500    4.4600    4.4700
    4.4800    4.4900    4.5000    4.5100    4.5200    4.5300    4.5400    4.5500
    4.5600    4.5700    4.5800    4.5900    4.6000    4.6100    4.6200    4.6300
    4.6400    4.6500    4.6600    4.6700    4.6800    4.6900    4.7000    4.7100
    4.7200    4.7300    4.7400    4.7500    4.7600    4.7700    4.7800    4.7900
    4.8000    4.8100    4.8200    4.8300    4.8400    4.8500    4.8600    4.8700
    4.8800    4.8900    4.9000    4.9100    4.9200    4.9300    4.9400    4.9500
    4.9600    4.9700    4.9800    4.9900    5.0000    5.0100    5.0200    5.0300
    5.0400    5.0500    5.0600    5.0700    5.0800    5.0900    5.1000    5.1100
    5.1200    5.1300    5.1400    5.1500    5.1600    5.1700    5.1800    5.1900
    5.2000    5.2100    5.2200    5.2300    5.2400    5.2500    5.2600    5.2700
    5.2800    5.2900    5.3000    5.3100    5.3200    5.3300    5.3400    5.3500
    5.3600    5.3700    5.3800    5.3900    5.4000    5.4100    5.4200    5.4300
    5.4400    5.4500    5.4600    5.4700    5.4800    5.4900    5.5000    5.5100
    5.5200    5.5300    5.5400    5.5500    5.5600    5.5700    5.5800    5.5900
    5.6000    5.6100    5.6200    5.6300    5.6400    5.6500    5.6600    5.6700
    5.6800    5.6900    5.7000    5.7100    5.7200    5.7300    5.7400    5.7500
    5.7600    5.7700    5.7800    5.7900    5.8000    5.8100    5.8200    5.8300
    5.8400    5.8500    5.8600    5.8700    5.8800    5.8900    5.9000    5.9100
    5.9200    5.9300    5.9400    5.9500    5.9600    5.9700    5.9800    5.9900
    6.0000    6.0100    6.0200    6.0300    6.0400    6.0500    6.0600    6.0700
    6.0800    6.0900    6.1000    6.1100    6.1200    6.1300    6.1400    6.1500
    6.1600    6.1700    6.1800    6.1900    6.2000    6.2100    6.2200    6.2300
    6.2400    6.2500    6.2600    6.2700    6.2800    6.2900    6.3000    6.3100
    6.3200    6.3300    6.3400    6.3500    6.3600    6.3700    6.3800    6.3900
    6.4000    6.4100    6.4200    6.4300    6.4400    6.4500    6.4600    6.4700
    6.4800    6.4900    6.5000    6.5100    6.5200    6.5300    6.5400    6.5500
    6.5600    6.5700    6.5800    6.5900    6.6000    6.6100    6.6200    6.6300
    6.6400    6.6500    6.6600    6.6700    6.6800    6.6900    6.7000    6.7100
    6.7200    6.7300    6.7400    6.7500    6.7600    6.7700    6.7800    6.7900
    6.8000    6.8100    6.8200    6.8300    6.8400    6.8500    6.8600    6.8700
    6.8800    6.8900    6.9000    6.9100    6.9200    6.9300    6.9400    6.9500
    6.9600    6.9700    6.9800    6.9900    7.0000    7.0100    7.0200    7.0300
    7.0400    7.0500    7.0600    7.0700    7.0800    7.0900    7.1000    7.1100
    7.1200    7.1300    7.1400    7.1500    7.1600    7.1700    7.1800    7.1900
    7.2000    7.2100    7.2200    7.2300    7.2400    7.2500    7.2600    7.2700
    7.2800    7.2900    7.3000    7.3100    7.3200    7.3300    7.3400    7.3500
    7.3600    7.3700    7.3800    7.3900    7.4000    7.4100    7.4200    7.4300
    7.4400    7.4500    7.4600    7.4700    7.4800    7.4900    7.5000    7.5100
    7.5200    7.5300    7.5400    7.5500    7.5600    7.5700    7.5800    7.5900
    7.6000    7.6100    7.6200    7.6300    7.6400    7.6500    7.6600    7.6700
    7.6800    7.6900    7.7000    7.7100    7.7200    7.7300    7.7400    7.7500
    7.7600    7.7700    7.7800    7.7900    7.8000    7.8100    7.8200    7.8300
    7.8400    7.8500    7.8600    7.8700    7.8800    7.8900    7.9000    7.9100
    7.9200    7.9300    7.9400    7.9500    7.9600    7.9700    7.9800    7.9900
    8.0000    8.0100    8.0200    8.0300    8.0400    8.0500    8.0600    8.0700
    8.0800    8.0900    8.1000    8.1100    8.1200    8.1300    8.1400    8.1500
    8.1600    8.1700    8.1800    8.1900    8.2000    8.2100    8.2200    8.2300
    8.2400    8.2500    8.2600    8.2700    8.2800    8.2900    8.3000    8.3100
    8.3200    8.3300    8.3400    8.3500    8.3600    8.3700    8.3800    8.3900
    8.4000    8.4100    8.4200    8.4300    8.4400    8.4500    8.4600    8.4700
    8.4800    8.4900    8.5000    8.5100    8.5200    8.5300    8.5400    8.5500
    8.5600    8.5700    8.5800    8.5900    8.6000    8.6100    8.6200    8.6300
    8.6400    8.6500    8.6600    8.6700    8.6800    8.6900    8.7000    8.7100
    8.7200    8.7300    8.7400    8.7500    8.7600    8.7700    8.7800    8.7900
    8.8000    8.8100    8.8200    8.8300    8.8400    8.8500    8.8600    8.8700
    8.8800    8.8900    8.9000    8.9100    8.9200    8.9300    8.9400    8.9500
    8.9600    8.9700    8.9800    8.9900    9.0000    9.0100    9.0200    9.0300
    9.0400    9.0500    9.0600    9.0700    9.0800    9.0900    9.1000    9.1100
    9.1200    9.1300    9.1400    9.1500    9.1600    9.1700    9.1800    9.1900
    9.2000    9.2100    9.2200    9.2300    9.2400    9.2500
   </PP_R>
   <PP_RAB type="real"  size=" 926" columns="8">
    0.0100    0.0100    0.0100    0.0100    0.0100    0.0100    0.0100    0.0100
    0.0100    0.0100    0.0100    0.0100    0.0100    0.0100    0.0100    0.0100
    0.0100    0.0100    0.0100    0.0100    0.0100    0.0100    0.0100    0.0100
    0.0100    0.0100    0.0100    0.0100    0.0100    0.0100    0.0100    0.0100
    0.0100    0.0100    0.0100    0.0100    0.0100    0.0100    0.0100    0.0100
    0.0100    0.0100    0.0100    0.0100    0.0100    0.0100    0.0100    0.0100
    0.0100    0.0100    0.0100    0.0100    0.0100    0.0100    0.0100    0.0100
    0.0100    0.0100    0.0100    0.0100    0.0100    0.0100    0.0100    0.0100
    0.0100    0.0100    0.0100    0.0100    0.0100    0.0100    0.0100    0.0100
    0.0100    0.0100    0.0100    0.0100    0.0100    0.0100    0.0100    0.0100
    0.0100    0.0100    0.0100    0.0100    0.0100    0.0100    0.0100    0.0100
    0.0100    0.0100    0.0100    0.0100    0.0100    0.0100    0.0100    0.0100
    0.0100    0.0100    0.0100    0.0100    0.0100    0.0100    0.0100    0.0100
    0.0100    0.0100    0.0100    0.0100    0.0100    0.0100    0.0100    0.0100
    0.0100    0.0100    0.0100    0.0100    0.0100    0.0100    0.0100    0.0100
    0.0100    0.0100    0.0100    0.0100    0.0100    0.0100    0.0100    0.0100
    0.0100    0.0100    0.0100    0.0100    0.0100    0.0100    0.0100    0.0100
    0.0100    0.0100    0.0100    0.0100    0.0100    0.0100    0.0100    0.0100
    0.0100    0.0100    0.0100    0.0100    0.0100    0.0100    0.0100    0.0100
    0.0100    0.0100    0.0100    0.0100    0.0100    0.0100    0.0100    0.0100
    0.0100    0.0100    0.0100    0.0100    0.0100    0.0100    0.0100    0.0100
    0.0100    0.0100    0.0100    0.0100    0.0100    0.0100    0.0100    0.0100
    0.0100    0.0100    0.0100    0.0100    0.0100    0.0100    0.0100    0.0100
    0.0100    0.0100    0.0100    0.0100    0.0100    0.0100    0.0100    0.0100
    0.0100    0.0100    0.0100    0.0100    0.0100    0.0100    0.0100    0.0100
    0.0100    0.0100    0.0100    0.0100    0.0100    0.0100    0.0100    0.0100
    0.0100    0.0100    0.0100    0.0100    0.0100    0.0100    0.0100    0.0100
    0.0100    0.0100    0.0100    0.0100    0.0100    0.0100    0.0100    0.0100
    0.0100    0.0100    0.0100    0.0100    0.0100    0.0100    0.0100    0.0100
    0.0100    0.0100    0.0100    0.0100    0.0100    0.0100    0.0100    0.0100
    0.0100    0.0100    0.0100    0.0100    0.0100    0.0100    0.0100    0.0100
    0.0100    0.0100    0.0100    0.0100    0.0100    0.0100    0.0100    0.0100
    0.0100    0.0100    0.0100    0.0100    0.0100    0.0100    0.0100    0.0100
    0.0100    0.0100    0.0100    0.0100    0.0100    0.0100    0.0100    0.0100
    0.0100    0.0100    0.0100    0.0100    0.0100    0.0100    0.0100    0.0100
    0.0100    0.0100    0.0100    0.0100    0.0100    0.0100    0.0100    0.0100
    0.0100    0.0100    0.0100    0.0100    0.0100    0.0100    0.0100    0.0100
    0.0100    0.0100    0.0100    0.0100    0.0100    0.0100    0.0100    0.0100
    0.0100    0.0100    0.0100    0.0100    0.0100    0.0100    0.0100    0.0100
    0.0100    0.0100    0.0100    0.0100    0.0100    0.0100    0.0100    0.0100
    0.0100    0.0100    0.0100    0.0100    0.0100    0.0100    0.0100    0.0100
    0.0100    0.0100    0.0100    0.0100    0.0100    0.0100    0.0100    0.0100
    0.0100    0.0100    0.0100    0.0100    0.0100    0.0100    0.0100    0.0100
    0.0100    0.0100    0.0100    0.0100    0.0100    0.0100    0.0100    0.0100
    0.0100    0.0100    0.0100    0.0100    0.0100    0.0100    0.0100    0.0100
    0.0100    0.0100    0.0100    0.0100    0.0100    0.0100    0.0100    0.0100
    0.0100    0.0100    0.0100    0.0100    0.0100    0.0100    0.0100    0.0100
    0.0100    0.0100    0.0100    0.0100    0.0100    0.0100    0.0100    0.0100
    0.0100    0.0100    0.0100    0.0100    0.0100    0.0100    0.0100    0.0100
    0.0100    0.0100    0.0100    0.0100    0.0100    0.0100    0.0100    0.0100
    0.0100    0.0100    0.0100    0.0100    0.0100    0.0100    0.0100    0.0100
    0.0100    0.0100    0.0100    0.0100    0.0100    0.0100    0.0100    0.0100
    0.0100    0.0100    0.0100    0.0100    0.0100    0.0100    0.0100    0.0100
    0.0100    0.0100    0.0100    0.0100    0.0100    0.0100    0.0100    0.0100
    0.0100    0.0100    0.0100    0.0100    0.0100    0.0100    0.0100    0.0100
    0.0100    0.0100    0.0100    0.0100    0.0100    0.0100    0.0100    0.0100
    0.0100    0.0100    0.0100    0.0100    0.0100    0.0100    0.0100    0.0100
    0.0100    0.0100    0.0100    0.0100    0.0100    0.0100    0.0100    0.0100
    0.0100    0.0100    0.0100    0.0100    0.0100    0.0100    0.0100    0.0100
    0.0100    0.0100    0.0100    0.0100    0.0100    0.0100    0.0100    0.0100
    0.0100    0.0100    0.0100    0.0100    0.0100    0.0100    0.0100    0.0100
    0.0100    0.0100    0.0100    0.0100    0.0100    0.0100    0.0100    0.0100
    0.0100    0.0100    0.0100    0.0100    0.0100    0.0100    0.0100    0.0100
    0.0100    0.0100    0.0100    0.0100    0.0100    0.0100    0.0100    0.0100
    0.0100    0.0100    0.0100    0.0100    0.0100    0.0100    0.0100    0.0100
    0.0100    0.0100    0.0100    0.0100    0.0100    0.0100    0.0100    0.0100
    0.0100    0.0100    0.0100    0.0100    0.0100    0.0100    0.0100    0.0100
    0.0100    0.0100    0.0100    0.0100    0.0100    0.0100    0.0100    0.0100
    0.0100    0.0100    0.0100    0.0100    0.0100    0.0100    0.0100    0.0100
    0.0100    0.0100    0.0100    0.0100    0.0100    0.0100    0.0100    0.0100
    0.0100    0.0100    0.0100    0.0100    0.0100    0.0100    0.0100    0.0100
    0.0100    0.0100    0.0100    0.0100    0.0100    0.0100    0.0100    0.0100
    0.0100    0.0100    0.0100    0.0100    0.0100    0.0100    0.0100    0.0100
    0.0100    0.0100    0.0100    0.0100    0.0100    0.0100    0.0100    0.0100
    0.0100    0.0100    0.0100    0.0100    0.0100    0.0100    0.0100    0.0100
    0.0100    0.0100    0.0100    0.0100    0.0100    0.0100    0.0100    0.0100
    0.0100    0.0100    0.0100    0.0100    0.0100    0.0100    0.0100    0.0100
    0.0100    0.0100    0.0100    0.0100    0.0100    0.0100    0.0100    0.0100
    0.0100    0.0100    0.0100    0.0100    0.0100    0.0100    0.0100    0.0100
    0.0100    0.0100    0.0100    0.0100    0.0100    0.0100    0.0100    0.0100
    0.0100    0.0100    0.0100    0.0100    0.0100    0.0100    0.0100    0.0100
    0.0100    0.0100    0.0100    0.0100    0.0100    0.0100    0.0100    0.0100
    0.0100    0.0100    0.0100    0.0100    0.0100    0.0100    0.0100    0.0100
    0.0100    0.0100    0.0100    0.0100    0.0100    0.0100    0.0100    0.0100
    0.0100    0.0100    0.0100    0.0100    0.0100    0.0100    0.0100    0.0100
    0.0100    0.0100    0.0100    0.0100    0.0100    0.0100    0.0100    0.0100
    0.0100    0.0100    0.0100    0.0100    0.0100    0.0100    0.0100    0.0100
    0.0100    0.0100    0.0100    0.0100    0.0100    0.0100    0.0100    0.0100
    0.0100    0.0100    0.0100    0.0100    0.0100    0.0100    0.0100    0.0100
    0.0100    0.0100    0.0100    0.0100    0.0100    0.0100    0.0100    0.0100
    0.0100    0.0100    0.0100    0.0100    0.0100    0.0100    0.0100    0.0100
    0.0100    0.0100    0.0100    0.0100    0.0100    0.0100    0.0100    0.0100
    0.0100    0.0100    0.0100    0.0100    0.0100    0.0100    0.0100    0.0100
    0.0100    0.0100    0.0100    0.0100    0.0100    0.0100    0.0100    0.0100
    0.0100    0.0100    0.0100    0.0100    0.0100    0.0100    0.0100    0.0100
    0.0100    0.0100    0.0100    0.0100    0.0100    0.0100    0.0100    0.0100
    0.0100    0.0100    0.0100    0.0100    0.0100    0.0100    0.0100    0.0100
    0.0100    0.0100    0.0100    0.0100    0.0100    0.0100    0.0100    0.0100
    0.0100    0.0100    0.0100    0.0100    0.0100    0.0100    0.0100    0.0100
    0.0100    0.0100    0.0100    0.0100    0.0100    0.0100    0.0100    0.0100
    0.0100    0.0100    0.0100    0.0100    0.0100    0.0100    0.0100    0.0100
    0.0100    0.0100    0.0100    0.0100    0.0100    0.0100    0.0100    0.0100
    0.0100    0.0100    0.0100    0.0100    0.0100    0.0100    0.0100    0.0100
    0.0100    0.0100    0.0100    0.0100    0.0100    0.0100    0.0100    0.0100
    0.0100    0.0100    0.0100    0.0100    0.0100    0.0100    0.0100    0.0100
    0.0100    0.0100    0.0100    0.0100    0.0100    0.0100    0.0100    0.0100
    0.0100    0.0100    0.0100    0.0100    0.0100    0.0100    0.0100    0.0100
    0.0100    0.0100    0.0100    0.0100    0.0100    0.0100    0.0100    0.0100
    0.0100    0.0100    0.0100    0.0100    0.0100    0.0100    0.0100    0.0100
    0.0100    0.0100    0.0100    0.0100    0.0100    0.0100    0.0100    0.0100
    0.0100    0.0100    0.0100    0.0100    0.0100    0.0100    0.0100    0.0100
    0.0100    0.0100    0.0100    0.0100    0.0100    0.0100    0.0100    0.0100
    0.0100    0.0100    0.0100    0.0100    0.0100    0.0100    0.0100    0.0100
    0.0100    0.0100    0.0100    0.0100    0.0100    0.0100    0.0100    0.0100
    0.0100    0.0100    0.0100    0.0100    0.0100    0.0100    0.0100    0.0100
    0.0100    0.0100    0.0100    0.0100    0.0100    0.0100
   </PP_RAB>
 </PP_MESH>
  <PP_LOCAL type="real"  size=" 926" columns="4">
   -2.0446349951E+01   -2.0445793710E+01   -2.0444122640E+01   -2.0441329832E+01
   -2.0437403794E+01   -2.0432328496E+01   -2.0426083439E+01   -2.0418643733E+01
   -2.0409980201E+01   -2.0400059493E+01   -2.0388844225E+01   -2.0376293126E+01
   -2.0362361215E+01   -2.0346999980E+01   -2.0330157590E+01   -2.0311779115E+01
   -2.0291806760E+01   -2.0270180129E+01   -2.0246836494E+01   -2.0221711089E+01
   -2.0194737419E+01   -2.0165847591E+01   -2.0134972661E+01   -2.0102043000E+01
   -2.0066988686E+01   -2.0029739905E+01   -1.9990227384E+01   -1.9948382840E+01
   -1.9904139441E+01   -1.9857432303E+01   -1.9808198984E+01   -1.9756380015E+01
   -1.9701919422E+01   -1.9644765275E+01   -1.9584870231E+01   -1.9522192076E+01
   -1.9456694263E+01   -1.9388346430E+01   -1.9317124896E+01   -1.9243013117E+01
   -1.9166002105E+01   -1.9086090789E+01   -1.9003286309E+01   -1.8917604245E+01
   -1.8829068758E+01   -1.8737712640E+01   -1.8643577286E+01   -1.8546712553E+01
   -1.8447176539E+01   -1.8345035262E+01   -1.8240362256E+01   -1.8133238087E+01
   -1.8023749803E+01   -1.7911990321E+01   -1.7798057777E+01   -1.7682054840E+01
   -1.7564088011E+01   -1.7444266916E+01   -1.7322703614E+01   -1.7199511914E+01
   -1.7074806734E+01   -1.6948703488E+01   -1.6821317524E+01   -1.6692763608E+01
   -1.6563155458E+01   -1.6432605339E+01   -1.6301223701E+01   -1.6169118876E+01
   -1.6036396824E+01   -1.5903160927E+01   -1.5769511826E+01   -1.5635547296E+01
   -1.5501362161E+01   -1.5367048241E+01   -1.5232694325E+01   -1.5098386171E+01
   -1.4964206523E+01   -1.4830235147E+01   -1.4696548886E+01   -1.4563221713E+01
   -1.4430324807E+01   -1.4297926621E+01   -1.4166092966E+01   -1.4034887082E+01
   -1.3904369724E+01   -1.3774599232E+01   -1.3645631606E+01   -1.3517520573E+01
   -1.3390317651E+01   -1.3264072201E+01   -1.3138831482E+01   -1.3014640684E+01
   -1.2891542968E+01   -1.2769579489E+01   -1.2648789410E+01   -1.2529209914E+01
   -1.2410876201E+01   -1.2293821482E+01   -1.2178076962E+01   -1.2063671818E+01
   -1.1950633166E+01   -1.1838986027E+01   -1.1728753281E+01   -1.1619955621E+01
   -1.1512611494E+01   -1.1406737051E+01   -1.1302346076E+01   -1.1199449925E+01
   -1.1098057455E+01   -1.0998174954E+01   -1.0899806068E+01   -1.0802951723E+01
   -1.0707610053E+01   -1.0613776459E+01   -1.0521444660E+01   -1.0430561944E+01
   -1.0341133655E+01   -1.0253181420E+01   -1.0166669098E+01   -1.0081572666E+01
   -9.9978651851E+00   -9.9155161826E+00   -9.8344933529E+00   -9.7547650946E+00
   -9.6763009027E+00   -9.5990713178E+00   -9.5230478809E+00   -9.4482030900E+00
   -9.3745103576E+00   -9.3019439709E+00   -9.2304790528E+00   -9.1600915249E+00
   -9.0907580714E+00   -9.0224561041E+00   -8.9551637284E+00   -8.8888597109E+00
   -8.8235234473E+00   -8.7591349179E+00   -8.6956746190E+00   -8.6331235159E+00
   -8.5714630223E+00   -8.5106749744E+00   -8.4507416084E+00   -8.3916455396E+00
   -8.3333697428E+00   -8.2758975348E+00   -8.2192125589E+00   -8.1632987936E+00
   -8.1081406133E+00   -8.0537228166E+00   -8.0000306063E+00   -7.9470495757E+00
   -7.8947656959E+00   -7.8431653035E+00   -7.7922350882E+00   -7.7419620815E+00
   -7.6923336458E+00   -7.6433374637E+00   -7.5949615283E+00   -7.5471941335E+00
   -7.5000238647E+00   -7.4534395904E+00   -7.4074304532E+00   -7.3619858620E+00
   -7.3170954843E+00   -7.2727492381E+00   -7.2289372848E+00   -7.1856500224E+00
   -7.1428780779E+00   -7.1006123013E+00   -7.0588437585E+00   -7.0175637255E+00
   -6.9767636818E+00   -6.9364353063E+00   -6.8965704782E+00   -6.8571612540E+00
   -6.8181998671E+00   -6.7796787271E+00   -6.7415904137E+00   -6.7039276730E+00
   -6.6666834117E+00   -6.6298506938E+00   -6.5934227353E+00   -6.5573929009E+00
   -6.5217546991E+00   -6.4865017791E+00   -6.4516279267E+00   -6.4171270603E+00
   -6.3829932280E+00   -6.3492206038E+00   -6.3158034843E+00   -6.2827362855E+00
   -6.2500135400E+00   -6.2176298933E+00   -6.1855801017E+00   -6.1538590288E+00
   -6.1224616432E+00   -6.0913830156E+00   -6.0606183161E+00   -6.0301628123E+00
   -6.0000118660E+00   -5.9701609316E+00   -5.9406055534E+00   -5.9113413636E+00
   -5.8823640798E+00   -5.8536695035E+00   -5.8252535175E+00   -5.7971120841E+00
   -5.7692412435E+00   -5.7416371115E+00   -5.7142958779E+00   -5.6872138048E+00
   -5.6603872248E+00   -5.6338125393E+00   -5.6074862171E+00   -5.5814047927E+00
   -5.5555648646E+00   -5.5299630941E+00   -5.5045962038E+00   -5.4794609761E+00
   -5.4545542520E+00   -5.4298729295E+00   -5.4054139627E+00   -5.3811743603E+00
   -5.3571511841E+00   -5.3333415487E+00   -5.3097426192E+00   -5.2863516111E+00
   -5.2631657885E+00   -5.2401824633E+00   -5.2173989943E+00   -5.1948127859E+00
   -5.1724212873E+00   -5.1502219914E+00   -5.1282124342E+00   -5.1063901934E+00
   -5.0847528878E+00   -5.0632981764E+00   -5.0420237577E+00   -5.0209273686E+00
   -5.0000067836E+00   -4.9792598142E+00   -4.9586843083E+00   -4.9382781490E+00
   -4.9180392541E+00   -4.8979655754E+00   -4.8780550982E+00   -4.8583058401E+00
   -4.8387158510E+00   -4.8192832120E+00   -4.8000060348E+00   -4.7808824612E+00
   -4.7619106628E+00   -4.7430888397E+00   -4.7244152205E+00   -4.7058880618E+00
   -4.6875056471E+00   -4.6692662868E+00   -4.6511683175E+00   -4.6332101014E+00
   -4.6153900260E+00   -4.5977065034E+00   -4.5801579701E+00   -4.5627428863E+00
   -4.5454597354E+00   -4.5283070239E+00   -4.5112832806E+00   -4.4943870565E+00
   -4.4776169241E+00   -4.4609714771E+00   -4.4444493302E+00   -4.4280491184E+00
   -4.4117694968E+00   -4.3956091402E+00   -4.3795667429E+00   -4.3636410180E+00
   -4.3478306972E+00   -4.3321345308E+00   -4.3165512867E+00   -4.3010797509E+00
   -4.2857187265E+00   -4.2704670335E+00   -4.2553235089E+00   -4.2402870060E+00
   -4.2253563943E+00   -4.2105305591E+00   -4.1958084014E+00   -4.1811888375E+00
   -4.1666707986E+00   -4.1522532308E+00   -4.1379350949E+00   -4.1237153656E+00
   -4.1095930321E+00   -4.0955670970E+00   -4.0816365767E+00   -4.0678005008E+00
   -4.0540579122E+00   -4.0404078665E+00   -4.0268494321E+00   -4.0133816899E+00
   -4.0000037328E+00   -3.9867146660E+00   -3.9735136065E+00   -3.9603996829E+00
   -3.9473720353E+00   -3.9344298152E+00   -3.9215721849E+00   -3.9087983179E+00
   -3.8961073983E+00   -3.8834986208E+00   -3.8709711903E+00   -3.8585243224E+00
   -3.8461572422E+00   -3.8338691851E+00   -3.8216593960E+00   -3.8095271296E+00
   -3.7974716498E+00   -3.7854922300E+00   -3.7735881527E+00   -3.7617587092E+00
   -3.7500031999E+00   -3.7383209338E+00   -3.7267112284E+00   -3.7151734100E+00
   -3.7037068128E+00   -3.6923107794E+00   -3.6809846605E+00   -3.6697278146E+00
   -3.6585396081E+00   -3.6474194152E+00   -3.6363666175E+00   -3.6253806042E+00
   -3.6144607719E+00   -3.6036065242E+00   -3.5928172722E+00   -3.5820924337E+00
   -3.5714314336E+00   -3.5608337037E+00   -3.5502986823E+00   -3.5398258146E+00
   -3.5294145521E+00   -3.5190643528E+00   -3.5087746811E+00   -3.4985450076E+00
   -3.4883748090E+00   -3.4782635682E+00   -3.4682107740E+00   -3.4582159210E+00
   -3.4482785098E+00   -3.4383980466E+00   -3.4285740433E+00   -3.4188060173E+00
   -3.4090934915E+00   -3.3994359943E+00   -3.3898330593E+00   -3.3802842254E+00
   -3.3707890367E+00   -3.3613470424E+00   -3.3519577968E+00   -3.3426208591E+00
   -3.3333357932E+00   -3.3241021683E+00   -3.3149195579E+00   -3.3057875405E+00
   -3.2967056991E+00   -3.2876736212E+00   -3.2786908990E+00   -3.2697571291E+00
   -3.2608719123E+00   -3.2520348539E+00   -3.2432455635E+00   -3.2345036548E+00
   -3.2258087456E+00   -3.2171604580E+00   -3.2085584179E+00   -3.2000022555E+00
   -3.1914916046E+00   -3.1830261031E+00   -3.1746053927E+00   -3.1662291188E+00
   -3.1578969306E+00   -3.1496084809E+00   -3.1413634264E+00   -3.1331614269E+00
   -3.1250021463E+00   -3.1168852516E+00   -3.1088104134E+00   -3.1007773057E+00
   -3.0927856058E+00   -3.0848349944E+00   -3.0769251553E+00   -3.0690557759E+00
   -3.0612265463E+00   -3.0534371603E+00   -3.0456873143E+00   -3.0379767080E+00
   -3.0303050443E+00   -3.0226720287E+00   -3.0150773701E+00   -3.0075207800E+00
   -3.0000019728E+00   -2.9925206660E+00   -2.9850765796E+00   -2.9776694367E+00
   -2.9702989627E+00   -2.9629648862E+00   -2.9556669382E+00   -2.9484048524E+00
   -2.9411783651E+00   -2.9339872152E+00   -2.9268311440E+00   -2.9197098956E+00
   -2.9126232164E+00   -2.9055708553E+00   -2.8985525636E+00   -2.8915680951E+00
   -2.8846172057E+00   -2.8776996539E+00   -2.8708152006E+00   -2.8639636085E+00
   -2.8571446432E+00   -2.8503580720E+00   -2.8436036646E+00   -2.8368811931E+00
   -2.8301904313E+00   -2.8235311554E+00   -2.8169031438E+00   -2.8103061768E+00
   -2.8037400368E+00   -2.7972045081E+00   -2.7906993773E+00   -2.7842244327E+00